  20  20   0   0
  0.3900392E+02  0.3486744E-09  0.3486744E-09  0.7409137E-08  0.5000000E-15
   1.0000000000000000E-004
  CAR 
 Pb_2Dslab_20L                           
     12.82654385    -13.70954107  301      4.69496056      1.00000000
    -13.710  0.0000E+00  0.0000E+00
    -13.621  0.0000E+00  0.0000E+00
    -13.533  0.0000E+00  0.0000E+00
    -13.444  0.0000E+00  0.0000E+00
    -13.356  0.0000E+00  0.0000E+00
    -13.267  0.0000E+00  0.0000E+00
    -13.179  0.0000E+00  0.0000E+00
    -13.090  0.2892E-18  0.2558E-19
    -13.002  0.9547E-14  0.8445E-15
    -12.913  0.4693E-10  0.4152E-11
    -12.825  0.5342E-07  0.4729E-08
    -12.737  0.1478E-04  0.1312E-05
    -12.648  0.1085E-02  0.9725E-04
    -12.560  0.2463E-01  0.2276E-02
    -12.471  0.2174E+00  0.2151E-01
    -12.383  0.8893E+00  0.1002E+00
    -12.294  0.1745E+01  0.2545E+00
    -12.206  0.1905E+01  0.4231E+00
    -12.117  0.1836E+01  0.5855E+00
    -12.029  0.1577E+01  0.7250E+00
    -11.940  0.7192E+00  0.7886E+00
    -11.852  0.1223E+00  0.7994E+00
    -11.764  0.6431E-02  0.8000E+00
    -11.675  0.9338E-04  0.8000E+00
    -11.587  0.3475E-06  0.8000E+00
    -11.498  0.3141E-09  0.8000E+00
    -11.410  0.6628E-13  0.8000E+00
    -11.321  0.1928E-18  0.8000E+00
    -11.233  0.0000E+00  0.8000E+00
    -11.144  0.0000E+00  0.8000E+00
    -11.056  0.0000E+00  0.8000E+00
    -10.967  0.0000E+00  0.8000E+00
    -10.879  0.0000E+00  0.8000E+00
    -10.791  0.0000E+00  0.8000E+00
    -10.702  0.0000E+00  0.8000E+00
    -10.614  0.0000E+00  0.8000E+00
    -10.525  0.0000E+00  0.8000E+00
    -10.437  0.0000E+00  0.8000E+00
    -10.348  0.0000E+00  0.8000E+00
    -10.260  0.0000E+00  0.8000E+00
    -10.171  0.0000E+00  0.8000E+00
    -10.083  0.0000E+00  0.8000E+00
     -9.994  0.0000E+00  0.8000E+00
     -9.906  0.0000E+00  0.8000E+00
     -9.818  0.0000E+00  0.8000E+00
     -9.729  0.0000E+00  0.8000E+00
     -9.641  0.0000E+00  0.8000E+00
     -9.552  0.0000E+00  0.8000E+00
     -9.464  0.0000E+00  0.8000E+00
     -9.375  0.0000E+00  0.8000E+00
     -9.287  0.0000E+00  0.8000E+00
     -9.198  0.0000E+00  0.8000E+00
     -9.110  0.0000E+00  0.8000E+00
     -9.021  0.0000E+00  0.8000E+00
     -8.933  0.0000E+00  0.8000E+00
     -8.845  0.0000E+00  0.8000E+00
     -8.756  0.0000E+00  0.8000E+00
     -8.668  0.0000E+00  0.8000E+00
     -8.579  0.0000E+00  0.8000E+00
     -8.491  0.0000E+00  0.8000E+00
     -8.402  0.0000E+00  0.8000E+00
     -8.314  0.0000E+00  0.8000E+00
     -8.225  0.0000E+00  0.8000E+00
     -8.137  0.0000E+00  0.8000E+00
     -8.049  0.0000E+00  0.8000E+00
     -7.960  0.0000E+00  0.8000E+00
     -7.872  0.0000E+00  0.8000E+00
     -7.783  0.0000E+00  0.8000E+00
     -7.695  0.1555E-16  0.8000E+00
     -7.606  0.1001E-12  0.8000E+00
     -7.518  0.1485E-09  0.8000E+00
     -7.429  0.5265E-07  0.8000E+00
     -7.341  0.4694E-05  0.8000E+00
     -7.252  0.1153E-03  0.8000E+00
     -7.164  0.9105E-03  0.8001E+00
     -7.076  0.2926E-02  0.8003E+00
     -6.987  0.5254E-02  0.8008E+00
     -6.899  0.7060E-02  0.8014E+00
     -6.810  0.8481E-02  0.8022E+00
     -6.722  0.9616E-02  0.8030E+00
     -6.633  0.1059E-01  0.8040E+00
     -6.545  0.1172E-01  0.8050E+00
     -6.456  0.1220E-01  0.8061E+00
     -6.368  0.1334E-01  0.8073E+00
     -6.279  0.1425E-01  0.8085E+00
     -6.191  0.1437E-01  0.8098E+00
     -6.103  0.1548E-01  0.8112E+00
     -6.014  0.1646E-01  0.8126E+00
     -5.926  0.1654E-01  0.8141E+00
     -5.837  0.1688E-01  0.8156E+00
     -5.749  0.1871E-01  0.8172E+00
     -5.660  0.1919E-01  0.8189E+00
     -5.572  0.1834E-01  0.8206E+00
     -5.483  0.1971E-01  0.8223E+00
     -5.395  0.2118E-01  0.8242E+00
     -5.306  0.2152E-01  0.8261E+00
     -5.218  0.2143E-01  0.8280E+00
     -5.130  0.2156E-01  0.8299E+00
     -5.041  0.2373E-01  0.8320E+00
     -4.953  0.2479E-01  0.8342E+00
     -4.864  0.2423E-01  0.8363E+00
     -4.776  0.2430E-01  0.8385E+00
     -4.687  0.2591E-01  0.8408E+00
     -4.599  0.2740E-01  0.8432E+00
     -4.510  0.2871E-01  0.8457E+00
     -4.422  0.2813E-01  0.8482E+00
     -4.333  0.2763E-01  0.8507E+00
     -4.245  0.3100E-01  0.8534E+00
     -4.157  0.3316E-01  0.8563E+00
     -4.068  0.3254E-01  0.8592E+00
     -3.980  0.3346E-01  0.8622E+00
     -3.891  0.3517E-01  0.8653E+00
     -3.803  0.3674E-01  0.8685E+00
     -3.714  0.4115E-01  0.8722E+00
     -3.626  0.4315E-01  0.8760E+00
     -3.537  0.4420E-01  0.8799E+00
     -3.449  0.4950E-01  0.8843E+00
     -3.360  0.5418E-01  0.8891E+00
     -3.272  0.5433E-01  0.8939E+00
     -3.184  0.5137E-01  0.8984E+00
     -3.095  0.4898E-01  0.9027E+00
     -3.007  0.5125E-01  0.9073E+00
     -2.918  0.5104E-01  0.9118E+00
     -2.830  0.4763E-01  0.9160E+00
     -2.741  0.4790E-01  0.9202E+00
     -2.653  0.4903E-01  0.9246E+00
     -2.564  0.4820E-01  0.9288E+00
     -2.476  0.4768E-01  0.9331E+00
     -2.387  0.4907E-01  0.9374E+00
     -2.299  0.5084E-01  0.9419E+00
     -2.211  0.5360E-01  0.9466E+00
     -2.122  0.5745E-01  0.9517E+00
     -2.034  0.5367E-01  0.9565E+00
     -1.945  0.3108E-01  0.9592E+00
     -1.857  0.8029E-02  0.9599E+00
     -1.768  0.7644E-03  0.9600E+00
     -1.680  0.2296E-04  0.9600E+00
     -1.591  0.1882E-06  0.9600E+00
     -1.503  0.3787E-09  0.9600E+00
     -1.414  0.1759E-12  0.9600E+00
     -1.326  0.1832E-16  0.9600E+00
     -1.238  0.0000E+00  0.9600E+00
     -1.149  0.0000E+00  0.9600E+00
     -1.061  0.0000E+00  0.9600E+00
     -0.972  0.0000E+00  0.9600E+00
     -0.884  0.0000E+00  0.9600E+00
     -0.795  0.0000E+00  0.9600E+00
     -0.707  0.0000E+00  0.9600E+00
     -0.618  0.0000E+00  0.9600E+00
     -0.530  0.0000E+00  0.9600E+00
     -0.441  0.0000E+00  0.9600E+00
     -0.353  0.0000E+00  0.9600E+00
     -0.265  0.0000E+00  0.9600E+00
     -0.176  0.0000E+00  0.9600E+00
     -0.088  0.1735E-15  0.9600E+00
      0.001  0.9314E-12  0.9600E+00
      0.089  0.1097E-08  0.9600E+00
      0.178  0.2910E-06  0.9600E+00
      0.266  0.1837E-04  0.9600E+00
      0.355  0.3091E-03  0.9600E+00
      0.443  0.1730E-02  0.9602E+00
      0.531  0.4481E-02  0.9606E+00
      0.620  0.7102E-02  0.9612E+00
      0.708  0.9141E-02  0.9620E+00
      0.797  0.1152E-01  0.9630E+00
      0.885  0.1335E-01  0.9642E+00
      0.974  0.1403E-01  0.9655E+00
      1.062  0.1619E-01  0.9669E+00
      1.151  0.1873E-01  0.9685E+00
      1.239  0.1956E-01  0.9703E+00
      1.328  0.2069E-01  0.9721E+00
      1.416  0.2321E-01  0.9742E+00
      1.504  0.2790E-01  0.9766E+00
      1.593  0.3212E-01  0.9795E+00
      1.681  0.3442E-01  0.9825E+00
      1.770  0.3569E-01  0.9857E+00
      1.858  0.3960E-01  0.9892E+00
      1.947  0.4693E-01  0.9933E+00
      2.035  0.4977E-01  0.9977E+00
      2.124  0.5413E-01  0.1003E+01
      2.212  0.6080E-01  0.1008E+01
      2.301  0.6636E-01  0.1014E+01
      2.389  0.6681E-01  0.1020E+01
      2.477  0.6382E-01  0.1025E+01
      2.566  0.6176E-01  0.1031E+01
      2.654  0.6287E-01  0.1036E+01
      2.743  0.5944E-01  0.1042E+01
      2.831  0.5460E-01  0.1046E+01
      2.920  0.4901E-01  0.1051E+01
      3.008  0.4345E-01  0.1055E+01
      3.097  0.3794E-01  0.1058E+01
      3.185  0.3708E-01  0.1061E+01
      3.274  0.3726E-01  0.1065E+01
      3.362  0.3538E-01  0.1068E+01
      3.450  0.3495E-01  0.1071E+01
      3.539  0.3775E-01  0.1074E+01
      3.627  0.3953E-01  0.1078E+01
      3.716  0.4015E-01  0.1081E+01
      3.804  0.3953E-01  0.1085E+01
      3.893  0.3639E-01  0.1088E+01
      3.981  0.3868E-01  0.1091E+01
      4.070  0.4008E-01  0.1095E+01
      4.158  0.3957E-01  0.1098E+01
      4.247  0.4185E-01  0.1102E+01
      4.335  0.4233E-01  0.1106E+01
      4.423  0.3993E-01  0.1109E+01
      4.512  0.3938E-01  0.1113E+01
      4.600  0.3949E-01  0.1116E+01
      4.689  0.3931E-01  0.1120E+01
      4.777  0.3935E-01  0.1123E+01
      4.866  0.4128E-01  0.1127E+01
      4.954  0.4442E-01  0.1131E+01
      5.043  0.4566E-01  0.1135E+01
      5.131  0.4156E-01  0.1139E+01
      5.220  0.3758E-01  0.1142E+01
      5.308  0.4103E-01  0.1145E+01
      5.396  0.4621E-01  0.1150E+01
      5.485  0.4942E-01  0.1154E+01
      5.573  0.5139E-01  0.1158E+01
      5.662  0.4980E-01  0.1163E+01
      5.750  0.4479E-01  0.1167E+01
      5.839  0.4426E-01  0.1171E+01
      5.927  0.4736E-01  0.1175E+01
      6.016  0.5132E-01  0.1180E+01
      6.104  0.5212E-01  0.1184E+01
      6.193  0.5257E-01  0.1189E+01
      6.281  0.5498E-01  0.1194E+01
      6.369  0.5524E-01  0.1199E+01
      6.458  0.5519E-01  0.1203E+01
      6.546  0.5701E-01  0.1208E+01
      6.635  0.5861E-01  0.1214E+01
      6.723  0.5726E-01  0.1219E+01
      6.812  0.5879E-01  0.1224E+01
      6.900  0.6615E-01  0.1230E+01
      6.989  0.7015E-01  0.1236E+01
      7.077  0.6720E-01  0.1242E+01
      7.166  0.6199E-01  0.1247E+01
      7.254  0.5616E-01  0.1252E+01
      7.342  0.5383E-01  0.1257E+01
      7.431  0.5704E-01  0.1262E+01
      7.519  0.6068E-01  0.1268E+01
      7.608  0.5823E-01  0.1273E+01
      7.696  0.4917E-01  0.1277E+01
      7.785  0.4785E-01  0.1281E+01
      7.873  0.4729E-01  0.1285E+01
      7.962  0.4397E-01  0.1289E+01
      8.050  0.4358E-01  0.1293E+01
      8.139  0.4471E-01  0.1297E+01
      8.227  0.4100E-01  0.1301E+01
      8.315  0.3730E-01  0.1304E+01
      8.404  0.3757E-01  0.1307E+01
      8.492  0.3789E-01  0.1311E+01
      8.581  0.3876E-01  0.1314E+01
      8.669  0.3959E-01  0.1318E+01
      8.758  0.3732E-01  0.1321E+01
      8.846  0.3334E-01  0.1324E+01
      8.935  0.3083E-01  0.1327E+01
      9.023  0.2846E-01  0.1329E+01
      9.111  0.2856E-01  0.1332E+01
      9.200  0.3162E-01  0.1334E+01
      9.288  0.3039E-01  0.1337E+01
      9.377  0.2494E-01  0.1339E+01
      9.465  0.2322E-01  0.1341E+01
      9.554  0.2078E-01  0.1343E+01
      9.642  0.1832E-01  0.1345E+01
      9.731  0.1830E-01  0.1347E+01
      9.819  0.1844E-01  0.1348E+01
      9.908  0.1626E-01  0.1350E+01
      9.996  0.1455E-01  0.1351E+01
     10.084  0.1333E-01  0.1352E+01
     10.173  0.1121E-01  0.1353E+01
     10.261  0.9597E-02  0.1354E+01
     10.350  0.1045E-01  0.1355E+01
     10.438  0.1163E-01  0.1356E+01
     10.527  0.9193E-02  0.1357E+01
     10.615  0.6463E-02  0.1357E+01
     10.704  0.5182E-02  0.1358E+01
     10.792  0.4935E-02  0.1358E+01
     10.881  0.4964E-02  0.1359E+01
     10.969  0.4401E-02  0.1359E+01
     11.057  0.2995E-02  0.1359E+01
     11.146  0.2693E-02  0.1359E+01
     11.234  0.2206E-02  0.1360E+01
     11.323  0.1419E-02  0.1360E+01
     11.411  0.1133E-02  0.1360E+01
     11.500  0.8809E-03  0.1360E+01
     11.588  0.4810E-03  0.1360E+01
     11.677  0.1517E-03  0.1360E+01
     11.765  0.3249E-04  0.1360E+01
     11.854  0.2935E-05  0.1360E+01
     11.942  0.7031E-07  0.1360E+01
     12.030  0.3900E-09  0.1360E+01
     12.119  0.4805E-12  0.1360E+01
     12.207  0.1288E-15  0.1360E+01
     12.296  0.0000E+00  0.1360E+01
     12.384  0.0000E+00  0.1360E+01
     12.473  0.0000E+00  0.1360E+01
     12.561  0.0000E+00  0.1360E+01
     12.650  0.0000E+00  0.1360E+01
     12.738  0.0000E+00  0.1360E+01
     12.827  0.0000E+00  0.1360E+01
