       N       E                     dE             d eps       ncg     rms          rms(c)
DAV:   1     0.352817398081E+04    0.35282E+04   -0.11452E+05 22320   0.158E+03
DAV:   2     0.388480848523E+03   -0.31397E+04   -0.30790E+04 22110   0.491E+02
DAV:   3    -0.484120833274E+02   -0.43689E+03   -0.42155E+03 24940   0.234E+02
DAV:   4    -0.787974348397E+02   -0.30385E+02   -0.29885E+02 25790   0.677E+01
DAV:   5    -0.799240564823E+02   -0.11266E+01   -0.11239E+01 26860   0.115E+01    0.266E+00
DAV:   6    -0.864118459137E+02   -0.64878E+01   -0.26087E+01 38910   0.559E+01    0.565E+00
DAV:   7    -0.805554026271E+02    0.58564E+01   -0.38158E+01 33600   0.122E+01    0.239E+00
DAV:   8    -0.820127575179E+02   -0.14574E+01   -0.15627E+01 35670   0.238E+01    0.333E+00
DAV:   9    -0.796322683319E+02    0.23805E+01   -0.69180E+00 33520   0.920E+00    0.935E-01
DAV:  10    -0.795152940336E+02    0.11697E+00   -0.83571E-01 31260   0.687E+00    0.467E-01
DAV:  11    -0.795141129905E+02    0.11810E-02   -0.24679E-01 28890   0.383E+00    0.340E-01
DAV:  12    -0.795177811663E+02   -0.36682E-02   -0.77251E-02 28280   0.172E+00    0.201E-01
DAV:  13    -0.795163240660E+02    0.14571E-02   -0.11176E-02 25240   0.111E+00    0.116E-01
DAV:  14    -0.795156132825E+02    0.71078E-03   -0.33205E-03 29730   0.571E-01    0.823E-02
DAV:  15    -0.795153604562E+02    0.25283E-03   -0.13016E-03 29050   0.418E-01    0.524E-02
DAV:  16    -0.795151447842E+02    0.21567E-03   -0.12395E-03 29850   0.260E-01    0.279E-02
DAV:  17    -0.795152283291E+02   -0.83545E-04   -0.53998E-04 25080   0.123E-01    0.218E-02
DAV:  18    -0.795152441671E+02   -0.15838E-04   -0.40146E-05 27660   0.318E-02    0.217E-02
DAV:  19    -0.795152447621E+02   -0.59500E-06   -0.21295E-06 15280   0.790E-03
   1 F= -.79515245E+02 E0= -.79490808E+02  d E =-.795152E+02
       N       E                     dE             d eps       ncg     rms          rms(c)
DAV:   1    -0.795170123161E+02   -0.17681E-02   -0.36506E+00 24250   0.388E+00    0.173E-01
DAV:   2    -0.795361711445E+02   -0.19159E-01   -0.14587E-01 36820   0.259E+00    0.239E-01
DAV:   3    -0.795443217821E+02   -0.81506E-02   -0.43586E-01 29030   0.547E+00    0.286E-01
DAV:   4    -0.795294701140E+02    0.14852E-01   -0.15898E-01 30150   0.335E+00    0.156E-01
DAV:   5    -0.795246027425E+02    0.48674E-02   -0.18958E-02 31030   0.177E+00    0.613E-02
DAV:   6    -0.795250340674E+02   -0.43132E-03   -0.53076E-03 26630   0.512E-01    0.559E-02
DAV:   7    -0.795250909245E+02   -0.56857E-04   -0.92079E-04 25530   0.290E-01    0.470E-02
DAV:   8    -0.795251083168E+02   -0.17392E-04   -0.13889E-04 29930   0.998E-02    0.368E-02
DAV:   9    -0.795251497656E+02   -0.41449E-04   -0.89430E-05 27370   0.159E-01    0.130E-02
DAV:  10    -0.795252225878E+02   -0.72822E-04   -0.10078E-04 28710   0.116E-01    0.156E-02
DAV:  11    -0.795252365655E+02   -0.13978E-04   -0.36105E-05 30220   0.384E-02    0.117E-02
DAV:  12    -0.795252523169E+02   -0.15751E-04   -0.34272E-06 20800   0.221E-02    0.791E-03
DAV:  13    -0.795253225911E+02   -0.70274E-04   -0.12950E-05 23700   0.389E-02    0.550E-03
DAV:  14    -0.795253545083E+02   -0.31917E-04   -0.79053E-06 22930   0.264E-02    0.463E-03
DAV:  15    -0.795253743822E+02   -0.19874E-04   -0.12380E-06 15160   0.115E-02    0.280E-03
DAV:  16    -0.795254034689E+02   -0.29087E-04   -0.17695E-06 14820   0.153E-02    0.253E-03
DAV:  17    -0.795254234230E+02   -0.19954E-04   -0.18797E-06 14510   0.899E-03    0.210E-03
DAV:  18    -0.795254258327E+02   -0.24098E-05   -0.23534E-07 15040   0.442E-03    0.112E-03
DAV:  19    -0.795254275509E+02   -0.17181E-05   -0.96781E-08 13620   0.335E-03    0.390E-04
DAV:  20    -0.795254285333E+02   -0.98244E-06   -0.91335E-08 13810   0.176E-03
   2 F= -.79525429E+02 E0= -.79501042E+02  d E =-.101838E-01
       N       E                     dE             d eps       ncg     rms          rms(c)
DAV:   1    -0.794277171640E+02    0.97710E-01   -0.32657E+01 24100   0.117E+01    0.646E-01
DAV:   2    -0.795568098650E+02   -0.12909E+00   -0.12969E+00 30570   0.440E+00    0.394E-01
DAV:   3    -0.808371837294E+02   -0.12804E+01   -0.84239E+00 32070   0.254E+01    0.227E+00
DAV:   4    -0.795478977909E+02    0.12893E+01   -0.64040E+00 34660   0.686E+00    0.259E-01
DAV:   5    -0.795468078216E+02    0.10900E-02   -0.90172E-02 33530   0.344E+00    0.240E-01
DAV:   6    -0.795431754549E+02    0.36324E-02   -0.36763E-02 30060   0.190E+00    0.148E-01
DAV:   7    -0.795438737583E+02   -0.69830E-03   -0.91657E-03 25770   0.685E-01    0.107E-01
DAV:   8    -0.795439197848E+02   -0.46026E-04   -0.15329E-03 26350   0.464E-01    0.867E-02
DAV:   9    -0.795438915653E+02    0.28220E-04   -0.30641E-04 29970   0.239E-01    0.669E-02
DAV:  10    -0.795438647314E+02    0.26834E-04   -0.40003E-04 29050   0.296E-01    0.252E-02
DAV:  11    -0.795438641675E+02    0.56389E-06   -0.18530E-04 27090   0.131E-01    0.151E-02
DAV:  12    -0.795438661776E+02   -0.20101E-05   -0.50380E-05 31840   0.560E-02    0.104E-02
DAV:  13    -0.795438691875E+02   -0.30098E-05   -0.10340E-05 25900   0.419E-02    0.408E-03
DAV:  14    -0.795438689775E+02    0.20996E-06   -0.44214E-06 20310   0.210E-02
   3 F= -.79543869E+02 E0= -.79519531E+02  d E =-.286242E-01
       N       E                     dE             d eps       ncg     rms          rms(c)
DAV:   1    -0.789595437380E+02    0.58433E+00   -0.13311E+02 24090   0.244E+01    0.123E+00
DAV:   2    -0.795983278300E+02   -0.63878E+00   -0.60555E+00 29000   0.101E+01    0.819E-01
DAV:   3    -0.828188089439E+02   -0.32205E+01   -0.21554E+01 33440   0.311E+01    0.363E+00
DAV:   4    -0.795763940428E+02    0.32424E+01   -0.12687E+01 36010   0.797E+00    0.643E-01
DAV:   5    -0.795271029570E+02    0.49291E-01   -0.49119E-01 36480   0.580E+00    0.471E-01
DAV:   6    -0.795217321967E+02    0.53708E-02   -0.10955E-01 30660   0.262E+00    0.319E-01
DAV:   7    -0.795233880024E+02   -0.16558E-02   -0.23355E-02 27010   0.121E+00    0.247E-01
DAV:   8    -0.795234409837E+02   -0.52981E-04   -0.69335E-03 26330   0.108E+00    0.169E-01
DAV:   9    -0.795233332631E+02    0.10772E-03   -0.17124E-03 28300   0.473E-01    0.106E-01
DAV:  10    -0.795233506033E+02   -0.17340E-04   -0.11042E-03 28360   0.473E-01    0.553E-02
DAV:  11    -0.795233776712E+02   -0.27068E-04   -0.51866E-04 31140   0.243E-01    0.247E-02
DAV:  12    -0.795233788442E+02   -0.11730E-05   -0.16460E-04 28970   0.112E-01    0.141E-02
DAV:  13    -0.795233803963E+02   -0.15521E-05   -0.31312E-05 26860   0.487E-02    0.102E-02
DAV:  14    -0.795233805030E+02   -0.10678E-06   -0.54195E-06 20300   0.218E-02
   4 F= -.79523381E+02 E0= -.79498561E+02  d E =-.813574E-02
       N       E                     dE             d eps       ncg     rms          rms(c)
DAV:   1    -0.792366013363E+02    0.28678E+00   -0.77250E+01 24050   0.175E+01    0.903E-01
DAV:   2    -0.796414925648E+02   -0.40489E+00   -0.37165E+00 32620   0.120E+01    0.753E-01
DAV:   3    -0.810883814675E+02   -0.14469E+01   -0.12601E+01 34030   0.214E+01    0.255E+00
DAV:   4    -0.796034286628E+02    0.14850E+01   -0.72287E+00 35010   0.722E+00    0.639E-01
DAV:   5    -0.795432475681E+02    0.60181E-01   -0.27500E-01 35470   0.474E+00    0.311E-01
DAV:   6    -0.795464506694E+02   -0.32031E-02   -0.64204E-02 30210   0.201E+00    0.223E-01
DAV:   7    -0.795462135451E+02    0.23712E-03   -0.11949E-02 28600   0.135E+00    0.173E-01
DAV:   8    -0.795463558400E+02   -0.14229E-03   -0.44109E-03 26490   0.598E-01    0.127E-01
DAV:   9    -0.795463840695E+02   -0.28230E-04   -0.10728E-03 27540   0.273E-01    0.830E-02
DAV:  10    -0.795463679392E+02    0.16130E-04   -0.23173E-04 29920   0.207E-01    0.453E-02
DAV:  11    -0.795463830588E+02   -0.15120E-04   -0.18548E-04 31470   0.145E-01    0.986E-03
DAV:  12    -0.795463878283E+02   -0.47695E-05   -0.49442E-05 32320   0.611E-02    0.574E-03
DAV:  13    -0.795463878259E+02    0.24229E-08   -0.67048E-06 24130   0.284E-02
   5 F= -.79546388E+02 E0= -.79522000E+02  d E =-.311431E-01
       N       E                     dE             d eps       ncg     rms          rms(c)
DAV:   1    -0.795462989084E+02    0.88920E-04   -0.35583E-01 24920   0.124E+00    0.343E-02
DAV:   2    -0.795468643321E+02   -0.56542E-03   -0.58662E-03 30530   0.299E-01    0.147E-02
DAV:   3    -0.795468909071E+02   -0.26575E-04   -0.22377E-04 33900   0.170E-01    0.133E-02
DAV:   4    -0.795469164660E+02   -0.25559E-04   -0.67203E-04 32450   0.252E-01    0.161E-02
DAV:   5    -0.795468866961E+02    0.29770E-04   -0.51427E-04 29960   0.225E-01    0.117E-02
DAV:   6    -0.795468714136E+02    0.15282E-04   -0.71803E-05 20900   0.100E-01    0.612E-03
DAV:   7    -0.795468731899E+02   -0.17763E-05   -0.14392E-05 29600   0.470E-02    0.420E-03
DAV:   8    -0.795468738073E+02   -0.61744E-06   -0.90841E-06 25340   0.354E-02
   6 F= -.79546874E+02 E0= -.79522501E+02  d E =-.485981E-03
       N       E                     dE             d eps       ncg     rms          rms(c)
DAV:   1    -0.795464722783E+02    0.40091E-03   -0.51288E-01 24730   0.148E+00    0.409E-02
DAV:   2    -0.795472971054E+02   -0.82483E-03   -0.85606E-03 30570   0.365E-01    0.184E-02
DAV:   3    -0.795474156493E+02   -0.11854E-03   -0.86047E-04 34430   0.340E-01    0.252E-02
DAV:   4    -0.795473400953E+02    0.75554E-04   -0.13539E-03 32930   0.343E-01    0.161E-02
DAV:   5    -0.795473168191E+02    0.23276E-04   -0.43761E-04 32880   0.229E-01    0.131E-02
DAV:   6    -0.795473057978E+02    0.11021E-04   -0.75458E-05 31880   0.937E-02    0.775E-03
DAV:   7    -0.795473084234E+02   -0.26255E-05   -0.20594E-05 28000   0.490E-02    0.536E-03
DAV:   8    -0.795473090018E+02   -0.57848E-06   -0.10388E-05 25320   0.449E-02    0.271E-03
DAV:   9    -0.795473093349E+02   -0.33302E-06   -0.19747E-06 14350   0.128E-02
   7 F= -.79547309E+02 E0= -.79522953E+02  d E =-.921509E-03
       N       E                     dE             d eps       ncg     rms          rms(c)
DAV:   1    -0.795438962497E+02    0.34128E-02   -0.20471E+00 24740   0.297E+00    0.106E-01
DAV:   2    -0.795476775473E+02   -0.37813E-02   -0.40195E-02 30710   0.920E-01    0.514E-02
DAV:   3    -0.795482214236E+02   -0.54388E-03   -0.42454E-03 34480   0.755E-01    0.588E-02
DAV:   4    -0.795478190158E+02    0.40241E-03   -0.61336E-03 32960   0.707E-01    0.384E-02
DAV:   5    -0.795477759737E+02    0.43042E-04   -0.17989E-03 32660   0.493E-01    0.358E-02
DAV:   6    -0.795476914054E+02    0.84568E-04   -0.43481E-04 30800   0.229E-01    0.211E-02
DAV:   7    -0.795477011620E+02   -0.97566E-05   -0.12420E-04 28520   0.125E-01    0.127E-02
DAV:   8    -0.795477016672E+02   -0.50519E-06   -0.52273E-05 26220   0.936E-02    0.838E-03
DAV:   9    -0.795477032893E+02   -0.16221E-05   -0.13258E-05 26470   0.272E-02    0.676E-03
DAV:  10    -0.795477038418E+02   -0.55243E-06   -0.17717E-06 14060   0.969E-03
   8 F= -.79547704E+02 E0= -.79523375E+02  d E =-.131602E-02
       N       E                     dE             d eps       ncg     rms          rms(c)
DAV:   1    -0.795475092920E+02    0.19400E-03   -0.22456E-01 24930   0.100E+00    0.242E-02
DAV:   2    -0.795478760360E+02   -0.36674E-03   -0.35601E-03 30810   0.286E-01    0.169E-02
DAV:   3    -0.795491811260E+02   -0.13051E-02   -0.12405E-02 32880   0.106E+00    0.741E-02
DAV:   4    -0.795478586671E+02    0.13225E-02   -0.81631E-03 34110   0.819E-01    0.106E-02
DAV:   5    -0.795478515621E+02    0.71050E-05   -0.17963E-04 35220   0.173E-01    0.771E-03
DAV:   6    -0.795478500845E+02    0.14776E-05   -0.87154E-05 31680   0.995E-02    0.494E-03
DAV:   7    -0.795478524004E+02   -0.23159E-05   -0.24637E-05 24490   0.313E-02    0.461E-03
DAV:   8    -0.795478526006E+02   -0.20021E-06   -0.15986E-06 14080   0.103E-02
   9 F= -.79547853E+02 E0= -.79523519E+02  d E =-.148759E-03
       N       E                     dE             d eps       ncg     rms          rms(c)
DAV:   1    -0.795478452000E+02    0.72005E-05   -0.30895E-02 25060   0.371E-01    0.900E-03
DAV:   2    -0.795479004851E+02   -0.55285E-04   -0.51812E-04 30960   0.115E-01    0.838E-03
DAV:   3    -0.795480015723E+02   -0.10109E-03   -0.13545E-03 31850   0.361E-01    0.213E-02
DAV:   4    -0.795478911050E+02    0.11047E-03   -0.67769E-04 23170   0.252E-01    0.257E-03
DAV:   5    -0.795478928390E+02   -0.17340E-05   -0.18035E-05 29450   0.441E-02    0.311E-03
DAV:   6    -0.795478934280E+02   -0.58900E-06   -0.16968E-05 24870   0.543E-02    0.299E-03
DAV:   7    -0.795478928551E+02    0.57297E-06   -0.75940E-06 22560   0.354E-02
  10 F= -.79547893E+02 E0= -.79523557E+02  d E =-.189013E-03
       N       E                     dE             d eps       ncg     rms          rms(c)
DAV:   1    -0.795477554550E+02    0.13797E-03   -0.12344E-01 24930   0.741E-01    0.169E-02
DAV:   2    -0.795479576900E+02   -0.20224E-03   -0.19753E-03 30750   0.190E-01    0.123E-02
DAV:   3    -0.795485916847E+02   -0.63399E-03   -0.60849E-03 27480   0.758E-01    0.513E-02
DAV:   4    -0.795479498059E+02    0.64188E-03   -0.39533E-03 29090   0.584E-01    0.745E-03
DAV:   5    -0.795479499433E+02   -0.13743E-06   -0.98132E-05 34420   0.130E-01    0.726E-03
DAV:   6    -0.795479466717E+02    0.32716E-05   -0.47370E-05 31600   0.768E-02    0.490E-03
DAV:   7    -0.795479481923E+02   -0.15206E-05   -0.15531E-05 24520   0.267E-02    0.426E-03
DAV:   8    -0.795479483440E+02   -0.15163E-06   -0.12308E-06 13830   0.996E-03
  11 F= -.79547948E+02 E0= -.79523609E+02  d E =-.244502E-03
       N       E                     dE             d eps       ncg     rms          rms(c)
DAV:   1    -0.795479045338E+02    0.43659E-04   -0.51292E-02 24880   0.483E-01    0.121E-02
DAV:   2    -0.795479852069E+02   -0.80673E-04   -0.81126E-04 31160   0.124E-01    0.711E-03
DAV:   3    -0.795484363608E+02   -0.45115E-03   -0.36148E-03 28720   0.587E-01    0.431E-02
DAV:   4    -0.795479828262E+02    0.45353E-03   -0.27454E-03 19820   0.463E-01    0.386E-03
DAV:   5    -0.795479850676E+02   -0.22414E-05   -0.26156E-05 24060   0.682E-02    0.479E-03
DAV:   6    -0.795479831388E+02    0.19289E-05   -0.22006E-05 29050   0.592E-02    0.337E-03
DAV:   7    -0.795479834608E+02   -0.32202E-06   -0.70982E-06 25080   0.259E-02
  12 F= -.79547983E+02 E0= -.79523637E+02  d E =-.351168E-04
       N       E                     dE             d eps       ncg     rms          rms(c)
DAV:   1    -0.795479845821E+02   -0.14433E-05   -0.54798E-04 25710   0.519E-02    0.247E-03
DAV:   2    -0.795479870958E+02   -0.25137E-05   -0.22990E-05 28580   0.376E-02    0.268E-03
DAV:   3    -0.795479915089E+02   -0.44131E-05   -0.68992E-05 15700   0.826E-02    0.490E-03
DAV:   4    -0.795479865607E+02    0.49482E-05   -0.35881E-05 15120   0.564E-02    0.173E-03
DAV:   5    -0.795479865100E+02    0.50670E-07   -0.35064E-06 15110   0.253E-02
  13 F= -.79547987E+02 E0= -.79523641E+02  d E =-.381661E-04
       N       E                     dE             d eps       ncg     rms          rms(c)
DAV:   1    -0.795479569120E+02    0.29649E-04   -0.34562E-02 25230   0.395E-01    0.931E-03
DAV:   2    -0.795480106307E+02   -0.53719E-04   -0.55263E-04 31250   0.949E-02    0.514E-03
DAV:   3    -0.795480203877E+02   -0.97570E-05   -0.73062E-05 23150   0.812E-02    0.708E-03
DAV:   4    -0.795480110994E+02    0.92884E-05   -0.89128E-05 17730   0.919E-02    0.348E-03
DAV:   5    -0.795480112669E+02   -0.16753E-06   -0.71067E-06 16570   0.374E-02
  14 F= -.79548011E+02 E0= -.79523662E+02  d E =-.247569E-04
       N       E                     dE             d eps       ncg     rms          rms(c)
DAV:   1    -0.795480083487E+02    0.27507E-05   -0.36757E-04 29830   0.528E-02    0.363E-03
DAV:   2    -0.795480326025E+02   -0.24254E-04   -0.10824E-04 19580   0.149E-01    0.103E-02
DAV:   3    -0.795480080533E+02    0.24549E-04   -0.87365E-05 17990   0.133E-01    0.188E-03
DAV:   4    -0.795480184715E+02   -0.10418E-04   -0.70999E-05 17840   0.821E-02    0.653E-03
DAV:   5    -0.795480094482E+02    0.90233E-05   -0.98788E-05 19300   0.934E-02    0.228E-03
DAV:   6    -0.795480086394E+02    0.80882E-06   -0.80499E-06 20400   0.314E-02
  15 F= -.79548009E+02 E0= -.79523660E+02  d E =-.221294E-04
       N       E                     dE             d eps       ncg     rms          rms(c)
DAV:   1    -0.795479980428E+02    0.11405E-04   -0.17321E-02 25290   0.282E-01    0.768E-03
DAV:   2    -0.795480257573E+02   -0.27714E-04   -0.27355E-04 30710   0.698E-02    0.463E-03
DAV:   3    -0.795481668531E+02   -0.14110E-03   -0.12701E-03 27950   0.350E-01    0.240E-02
DAV:   4    -0.795480234045E+02    0.14345E-03   -0.86331E-04 16800   0.279E-01    0.182E-03
DAV:   5    -0.795480242884E+02   -0.88385E-06   -0.74392E-06 19680   0.308E-02
  16 F= -.79548024E+02 E0= -.79523673E+02  d E =-.156490E-04
       N       E                     dE             d eps       ncg     rms          rms(c)
DAV:   1    -0.795480220343E+02    0.13703E-05   -0.21683E-04 31910   0.440E-02    0.223E-03
DAV:   2    -0.795480284666E+02   -0.64324E-05   -0.41573E-05 16970   0.658E-02    0.508E-03
DAV:   3    -0.795480238015E+02    0.46651E-05   -0.74381E-05 15930   0.834E-02    0.293E-03
DAV:   4    -0.795480228180E+02    0.98353E-06   -0.13731E-05 15780   0.411E-02    0.189E-03
DAV:   5    -0.795480223194E+02    0.49864E-06   -0.30482E-06 15050   0.238E-02
  17 F= -.79548022E+02 E0= -.79523673E+02  d E =-.136800E-04
       N       E                     dE             d eps       ncg     rms          rms(c)
DAV:   1    -0.795480122388E+02    0.10579E-04   -0.14343E-02 25290   0.257E-01    0.734E-03
DAV:   2    -0.795480349416E+02   -0.22703E-04   -0.23543E-04 31440   0.672E-02    0.331E-03
DAV:   3    -0.795481328985E+02   -0.97957E-04   -0.70037E-04 24710   0.262E-01    0.201E-02
DAV:   4    -0.795480357536E+02    0.97145E-04   -0.61692E-04 16770   0.225E-01    0.263E-03
DAV:   5    -0.795480351661E+02    0.58750E-06   -0.97733E-06 16150   0.446E-02
  18 F= -.79548035E+02 E0= -.79523683E+02  d E =-.128467E-04
       N       E                     dE             d eps       ncg     rms          rms(c)
DAV:   1    -0.795480322184E+02    0.35351E-05   -0.28152E-04 25720   0.398E-02    0.262E-03
DAV:   2    -0.795480375399E+02   -0.53215E-05   -0.36408E-05 18200   0.564E-02    0.463E-03
DAV:   3    -0.795480335082E+02    0.40317E-05   -0.63876E-05 16640   0.775E-02    0.220E-03
DAV:   4    -0.795480343673E+02   -0.85910E-06   -0.13085E-05 16080   0.457E-02    0.263E-03
DAV:   5    -0.795480328940E+02    0.14733E-05   -0.72964E-06 16060   0.385E-02    0.825E-04
DAV:   6    -0.795480332061E+02   -0.31209E-06   -0.39698E-06 19420   0.120E-02
  19 F= -.79548033E+02 E0= -.79523682E+02  d E =-.108867E-04
