<?xml version="1.0" encoding="ISO-8859-1"?>
<modeling>
 <generator>
  <i name="program" type="string">vasp </i>
  <i name="version" type="string">5.4.4.18Apr17-6-g9f103f2a35  </i>
  <i name="subversion" type="string">(build Sep 13 2019 13:34:59) complex            parallel </i>
  <i name="platform" type="string">LinuxGNU </i>
  <i name="date" type="string">2020 11 20 </i>
  <i name="time" type="string">17:15:56 </i>
 </generator>
 <incar>
  <i type="string" name="SYSTEM"> Pb_2Dslab_20L</i>
  <i type="int" name="ISTART">     0</i>
  <i type="string" name="PREC">normal</i>
  <i type="int" name="ICHARG">     2</i>
  <i type="int" name="IBRION">     2</i>
  <i name="EDIFF">      0.00000100</i>
  <i type="int" name="NSW">   250</i>
  <i type="int" name="ISIF">     2</i>
  <i name="ENCUT">    400.00000000</i>
  <i type="int" name="ISMEAR">     0</i>
  <i name="SIGMA">      0.10000000</i>
  <v type="int" name="KPOINT_BSE">    -1     0     0     0</v>
  <i type="string" name="GGA">PS</i>
 </incar>
 <structure name="primitive_cell" >
  <crystal>
   <varray name="basis" >
    <v>       2.46549997      -2.46549997       0.00000000 </v>
    <v>       0.00000000       2.46549997      -2.46549997 </v>
    <v>      42.77667205      42.77667205      42.77667205 </v>
   </varray>
   <i name="volume">    780.07840094 </i>
   <varray name="rec_basis" >
    <v>       0.27039816      -0.13519908      -0.13519908 </v>
    <v>       0.13519908       0.13519908      -0.27039816 </v>
    <v>       0.00779241       0.00779241       0.00779241 </v>
   </varray>
  </crystal>
  <varray name="positions" >
   <v>      -0.33333305       0.33333389       0.00000000 </v>
   <v>       0.00000027       0.00000054       0.03842437 </v>
   <v>       0.33333362      -0.33333278       0.07684874 </v>
   <v>      -0.33333305       0.33333389       0.11527311 </v>
   <v>       0.00000027       0.00000054       0.15369748 </v>
   <v>       0.33333362      -0.33333278       0.19212185 </v>
   <v>      -0.33333305       0.33333389       0.23054622 </v>
   <v>       0.00000027       0.00000054       0.26897059 </v>
   <v>       0.00000027       0.00000054      -0.26993697 </v>
   <v>      -0.33333305       0.33333389      -0.30836134 </v>
   <v>       0.33333362      -0.33333278       0.30739496 </v>
   <v>      -0.33333305       0.33333389       0.34581933 </v>
   <v>       0.33333362      -0.33333278      -0.34678571 </v>
   <v>       0.00000027       0.00000054       0.38424370 </v>
   <v>       0.00000027       0.00000054      -0.38521008 </v>
   <v>       0.33333362      -0.33333278       0.42266807 </v>
   <v>      -0.33333305       0.33333389      -0.42363445 </v>
   <v>      -0.33333305       0.33333389       0.46109244 </v>
   <v>       0.33333362      -0.33333278      -0.46205882 </v>
   <v>       0.00000027       0.00000054       0.49951681 </v>
  </varray>
 </structure>
 <varray name="primitive_index" >
  <v type="int" >        1 </v>
  <v type="int" >        2 </v>
  <v type="int" >        3 </v>
  <v type="int" >        4 </v>
  <v type="int" >        5 </v>
  <v type="int" >        6 </v>
  <v type="int" >        7 </v>
  <v type="int" >        8 </v>
  <v type="int" >       20 </v>
  <v type="int" >       19 </v>
  <v type="int" >        9 </v>
  <v type="int" >       10 </v>
  <v type="int" >       18 </v>
  <v type="int" >       11 </v>
  <v type="int" >       17 </v>
  <v type="int" >       12 </v>
  <v type="int" >       16 </v>
  <v type="int" >       13 </v>
  <v type="int" >       15 </v>
  <v type="int" >       14 </v>
 </varray>
 <kpoints>
  <generation param="Gamma">
   <v type="int" name="divisions">      25       25        1 </v>
   <v name="usershift">      0.00000000       0.00000000       0.00000000 </v>
   <v name="genvec1">      0.04000000       0.00000000       0.00000000 </v>
   <v name="genvec2">     -0.00000000       0.04000000      -0.00000000 </v>
   <v name="genvec3">     -0.00000000       0.00000000       1.00000000 </v>
   <v name="shift">      0.00000000       0.00000000       0.00000000 </v>
  </generation>
  <varray name="kpointlist" >
   <v>       0.00000000       0.00000000       0.00000000 </v>
   <v>       0.04000000       0.00000000       0.00000000 </v>
   <v>       0.08000000       0.00000000       0.00000000 </v>
   <v>       0.12000000       0.00000000       0.00000000 </v>
   <v>       0.16000000       0.00000000       0.00000000 </v>
   <v>       0.20000000       0.00000000       0.00000000 </v>
   <v>       0.24000000       0.00000000       0.00000000 </v>
   <v>       0.28000000       0.00000000       0.00000000 </v>
   <v>       0.32000000       0.00000000       0.00000000 </v>
   <v>       0.36000000       0.00000000       0.00000000 </v>
   <v>       0.40000000       0.00000000       0.00000000 </v>
   <v>       0.44000000       0.00000000       0.00000000 </v>
   <v>       0.48000000       0.00000000       0.00000000 </v>
   <v>       0.04000000       0.04000000       0.00000000 </v>
   <v>       0.08000000       0.04000000       0.00000000 </v>
   <v>       0.12000000       0.04000000       0.00000000 </v>
   <v>       0.16000000       0.04000000       0.00000000 </v>
   <v>       0.20000000       0.04000000       0.00000000 </v>
   <v>       0.24000000       0.04000000       0.00000000 </v>
   <v>       0.28000000       0.04000000       0.00000000 </v>
   <v>       0.32000000       0.04000000       0.00000000 </v>
   <v>       0.36000000       0.04000000       0.00000000 </v>
   <v>       0.40000000       0.04000000       0.00000000 </v>
   <v>       0.44000000       0.04000000       0.00000000 </v>
   <v>       0.48000000       0.04000000       0.00000000 </v>
   <v>       0.08000000       0.08000000       0.00000000 </v>
   <v>       0.12000000       0.08000000       0.00000000 </v>
   <v>       0.16000000       0.08000000       0.00000000 </v>
   <v>       0.20000000       0.08000000       0.00000000 </v>
   <v>       0.24000000       0.08000000       0.00000000 </v>
   <v>       0.28000000       0.08000000       0.00000000 </v>
   <v>       0.32000000       0.08000000       0.00000000 </v>
   <v>       0.36000000       0.08000000       0.00000000 </v>
   <v>       0.40000000       0.08000000       0.00000000 </v>
   <v>       0.44000000       0.08000000       0.00000000 </v>
   <v>       0.12000000       0.12000000       0.00000000 </v>
   <v>       0.16000000       0.12000000       0.00000000 </v>
   <v>       0.20000000       0.12000000       0.00000000 </v>
   <v>       0.24000000       0.12000000       0.00000000 </v>
   <v>       0.28000000       0.12000000       0.00000000 </v>
   <v>       0.32000000       0.12000000       0.00000000 </v>
   <v>       0.36000000       0.12000000       0.00000000 </v>
   <v>       0.40000000       0.12000000       0.00000000 </v>
   <v>       0.44000000       0.12000000       0.00000000 </v>
   <v>       0.16000000       0.16000000       0.00000000 </v>
   <v>       0.20000000       0.16000000       0.00000000 </v>
   <v>       0.24000000       0.16000000       0.00000000 </v>
   <v>       0.28000000       0.16000000       0.00000000 </v>
   <v>       0.32000000       0.16000000       0.00000000 </v>
   <v>       0.36000000       0.16000000       0.00000000 </v>
   <v>       0.40000000       0.16000000       0.00000000 </v>
   <v>       0.20000000       0.20000000       0.00000000 </v>
   <v>       0.24000000       0.20000000       0.00000000 </v>
   <v>       0.28000000       0.20000000       0.00000000 </v>
   <v>       0.32000000       0.20000000       0.00000000 </v>
   <v>       0.36000000       0.20000000       0.00000000 </v>
   <v>       0.40000000       0.20000000       0.00000000 </v>
   <v>       0.24000000       0.24000000       0.00000000 </v>
   <v>       0.28000000       0.24000000       0.00000000 </v>
   <v>       0.32000000       0.24000000       0.00000000 </v>
   <v>       0.36000000       0.24000000       0.00000000 </v>
   <v>       0.28000000       0.28000000       0.00000000 </v>
   <v>       0.32000000       0.28000000      -0.00000000 </v>
   <v>       0.36000000       0.28000000       0.00000000 </v>
   <v>       0.32000000       0.32000000       0.00000000 </v>
  </varray>
  <varray name="weights" >
   <v>       0.00160000 </v>
   <v>       0.00960000 </v>
   <v>       0.00960000 </v>
   <v>       0.00960000 </v>
   <v>       0.00960000 </v>
   <v>       0.00960000 </v>
   <v>       0.00960000 </v>
   <v>       0.00960000 </v>
   <v>       0.00960000 </v>
   <v>       0.00960000 </v>
   <v>       0.00960000 </v>
   <v>       0.00960000 </v>
   <v>       0.00960000 </v>
   <v>       0.00960000 </v>
   <v>       0.01920000 </v>
   <v>       0.01920000 </v>
   <v>       0.01920000 </v>
   <v>       0.01920000 </v>
   <v>       0.01920000 </v>
   <v>       0.01920000 </v>
   <v>       0.01920000 </v>
   <v>       0.01920000 </v>
   <v>       0.01920000 </v>
   <v>       0.01920000 </v>
   <v>       0.00960000 </v>
   <v>       0.00960000 </v>
   <v>       0.01920000 </v>
   <v>       0.01920000 </v>
   <v>       0.01920000 </v>
   <v>       0.01920000 </v>
   <v>       0.01920000 </v>
   <v>       0.01920000 </v>
   <v>       0.01920000 </v>
   <v>       0.01920000 </v>
   <v>       0.01920000 </v>
   <v>       0.00960000 </v>
   <v>       0.01920000 </v>
   <v>       0.01920000 </v>
   <v>       0.01920000 </v>
   <v>       0.01920000 </v>
   <v>       0.01920000 </v>
   <v>       0.01920000 </v>
   <v>       0.01920000 </v>
   <v>       0.00960000 </v>
   <v>       0.00960000 </v>
   <v>       0.01920000 </v>
   <v>       0.01920000 </v>
   <v>       0.01920000 </v>
   <v>       0.01920000 </v>
   <v>       0.01920000 </v>
   <v>       0.01920000 </v>
   <v>       0.00960000 </v>
   <v>       0.01920000 </v>
   <v>       0.01920000 </v>
   <v>       0.01920000 </v>
   <v>       0.01920000 </v>
   <v>       0.00960000 </v>
   <v>       0.00960000 </v>
   <v>       0.01920000 </v>
   <v>       0.01920000 </v>
   <v>       0.01920000 </v>
   <v>       0.00960000 </v>
   <v>       0.01920000 </v>
   <v>       0.00960000 </v>
   <v>       0.00960000 </v>
  </varray>
 </kpoints>
 <parameters>
  <separator name="general" >
   <i type="string" name="SYSTEM">Pb_2Dslab_20L</i>
   <i type="logical" name="LCOMPAT"> F  </i>
  </separator>
  <separator name="electronic" >
   <i type="string" name="PREC">normal</i>
   <i name="ENMAX">    400.00000000</i>
   <i name="ENAUG">    391.91400000</i>
   <i name="EDIFF">      0.00000100</i>
   <i type="int" name="IALGO">    38</i>
   <i type="int" name="IWAVPR">    11</i>
   <i type="int" name="NBANDS">   170</i>
   <i name="NELECT">    280.00000000</i>
   <i type="int" name="TURBO">     0</i>
   <i type="int" name="IRESTART">     0</i>
   <i type="int" name="NREBOOT">     0</i>
   <i type="int" name="NMIN">     0</i>
   <i name="EREF">      0.00000000</i>
   <separator name="electronic smearing" >
    <i type="int" name="ISMEAR">     0</i>
    <i name="SIGMA">      0.10000000</i>
    <i name="KSPACING">      0.50000000</i>
    <i type="logical" name="KGAMMA"> T  </i>
   </separator>
   <separator name="electronic projectors" >
    <i type="logical" name="LREAL"> F  </i>
    <v name="ROPT">      0.00000000</v>
    <i type="int" name="LMAXPAW">  -100</i>
    <i type="int" name="LMAXMIX">     2</i>
    <i type="logical" name="NLSPLINE"> F  </i>
   </separator>
   <separator name="electronic startup" >
    <i type="int" name="ISTART">     0</i>
    <i type="int" name="ICHARG">     2</i>
    <i type="int" name="INIWAV">     1</i>
   </separator>
   <separator name="electronic spin" >
    <i type="int" name="ISPIN">     1</i>
    <i type="logical" name="LNONCOLLINEAR"> F  </i>
    <v name="MAGMOM">      1.00000000      1.00000000      1.00000000      1.00000000      1.00000000      1.00000000      1.00000000      1.00000000      1.00000000      1.00000000      1.00000000      1.00000000      1.00000000      1.00000000      1.00000000      1.00000000      1.00000000      1.00000000      1.00000000      1.00000000
</v>
    <i name="NUPDOWN">     -1.00000000</i>
    <i type="logical" name="LSORBIT"> F  </i>
    <v name="SAXIS">      0.00000000      0.00000000      1.00000000</v>
    <i type="logical" name="LSPIRAL"> F  </i>
    <v name="QSPIRAL">      0.00000000      0.00000000      0.00000000</v>
    <i type="logical" name="LZEROZ"> F  </i>
   </separator>
   <separator name="electronic exchange-correlation" >
    <i type="logical" name="LASPH"> F  </i>
    <i type="logical" name="LMETAGGA"> F  </i>
   </separator>
   <separator name="electronic convergence" >
    <i type="int" name="NELM">    60</i>
    <i type="int" name="NELMDL">    -5</i>
    <i type="int" name="NELMIN">     2</i>
    <i name="ENINI">    400.00000000</i>
    <separator name="electronic convergence detail" >
     <i type="logical" name="LDIAG"> T  </i>
     <i type="logical" name="LSUBROT"> F  </i>
     <i name="WEIMIN">      0.00100000</i>
     <i name="EBREAK">      0.00000000</i>
     <i name="DEPER">      0.30000000</i>
     <i type="int" name="NRMM">     4</i>
     <i name="TIME">      0.40000000</i>
    </separator>
   </separator>
   <separator name="electronic mixer" >
    <i name="AMIX">      0.40000000</i>
    <i name="BMIX">      1.00000000</i>
    <i name="AMIN">      0.10000000</i>
    <i name="AMIX_MAG">      1.60000000</i>
    <i name="BMIX_MAG">      1.00000000</i>
    <separator name="electronic mixer details" >
     <i type="int" name="IMIX">     4</i>
     <i type="logical" name="MIXFIRST"> F  </i>
     <i type="int" name="MAXMIX">   -45</i>
     <i name="WC">    100.00000000</i>
     <i type="int" name="INIMIX">     1</i>
     <i type="int" name="MIXPRE">     1</i>
     <i type="int" name="MREMOVE">     5</i>
    </separator>
   </separator>
   <separator name="electronic dipolcorrection" >
    <i type="logical" name="LDIPOL"> F  </i>
    <i type="logical" name="LMONO"> F  </i>
    <i type="int" name="IDIPOL">     0</i>
    <i name="EPSILON">      1.00000000</i>
    <v name="DIPOL">   -100.00000000   -100.00000000   -100.00000000</v>
    <i name="EFIELD">      0.00000000</i>
   </separator>
  </separator>
  <separator name="grids" >
   <i type="int" name="NGX">    18</i>
   <i type="int" name="NGY">    18</i>
   <i type="int" name="NGZ">   378</i>
   <i type="int" name="NGXF">    36</i>
   <i type="int" name="NGYF">    36</i>
   <i type="int" name="NGZF">   756</i>
   <i type="logical" name="ADDGRID"> F  </i>
  </separator>
  <separator name="ionic" >
   <i type="int" name="NSW">   250</i>
   <i type="int" name="IBRION">     2</i>
   <i type="int" name="MDALGO">     0</i>
   <i type="int" name="ISIF">     2</i>
   <i name="PSTRESS">      0.00000000</i>
   <i name="EDIFFG">      0.00001000</i>
   <i type="int" name="NFREE">     1</i>
   <i name="POTIM">      0.50000000</i>
   <i name="SMASS">     -3.00000000</i>
   <i name="SCALEE">      1.00000000</i>
  </separator>
  <separator name="ionic md" >
   <i name="TEBEG">      0.00010000</i>
   <i name="TEEND">      0.00010000</i>
   <i type="int" name="NBLOCK">     1</i>
   <i type="int" name="KBLOCK">   250</i>
   <i type="int" name="NPACO">   256</i>
   <i name="APACO">     16.00000000</i>
  </separator>
  <separator name="symmetry" >
   <i type="int" name="ISYM">     2</i>
   <i name="SYMPREC">      0.00001000</i>
  </separator>
  <separator name="dos" >
   <i type="int" name="LORBIT">     0</i>
   <v name="RWIGS">     -1.00000000</v>
   <i type="int" name="NEDOS">   301</i>
   <i name="EMIN">     10.00000000</i>
   <i name="EMAX">    -10.00000000</i>
   <i name="EFERMI">      0.00000000</i>
  </separator>
  <separator name="writing" >
   <i type="int" name="NWRITE">     2</i>
   <i type="logical" name="LWAVE"> T  </i>
   <i type="logical" name="LDOWNSAMPLE"> F  </i>
   <i type="logical" name="LCHARG"> T  </i>
   <i type="logical" name="LPARD"> F  </i>
   <i type="logical" name="LVTOT"> F  </i>
   <i type="logical" name="LVHAR"> F  </i>
   <i type="logical" name="LELF"> F  </i>
   <i type="logical" name="LOPTICS"> F  </i>
   <v name="STM">      0.00000000      0.00000000      0.00000000      0.00000000      0.00000000      0.00000000      0.00000000</v>
  </separator>
  <separator name="performance" >
   <i type="int" name="NPAR">     5</i>
   <i type="int" name="NSIM">     4</i>
   <i type="int" name="NBLK">    -1</i>
   <i type="logical" name="LPLANE"> T  </i>
   <i type="logical" name="LSCALAPACK"> T  </i>
   <i type="logical" name="LSCAAWARE"> F  </i>
   <i type="logical" name="LSCALU"> F  </i>
   <i type="logical" name="LASYNC"> F  </i>
   <i type="logical" name="LORBITALREAL"> F  </i>
  </separator>
  <separator name="miscellaneous" >
   <i type="int" name="IDIOT">     3</i>
   <i type="int" name="ISPECIAL">     0</i>
   <i type="logical" name="LMUSIC"> F  </i>
   <v name="POMASS">    207.20000000</v>
   <v name="DARWINR">      0.00000000</v>
   <v name="DARWINV">      1.00000000</v>
   <i type="logical" name="LCORR"> T  </i>
  </separator>
  <i type="logical" name="GGA_COMPAT"> T  </i>
  <i type="logical" name="LBERRY"> F  </i>
  <i type="int" name="ICORELEVEL">     0</i>
  <i type="logical" name="LDAU"> F  </i>
  <i type="int" name="I_CONSTRAINED_M">     0</i>
  <separator name="electronic exchange-correlation" >
   <i type="string" name="GGA">PS</i>
   <i type="int" name="VOSKOWN">     0</i>
   <i type="logical" name="LHFCALC"> F  </i>
   <i type="string" name="PRECFOCK"></i>
   <i type="logical" name="LSYMGRAD"> F  </i>
   <i type="logical" name="LHFONE"> F  </i>
   <i type="logical" name="LRHFCALC"> F  </i>
   <i type="logical" name="LTHOMAS"> F  </i>
   <i type="logical" name="LMODELHF"> F  </i>
   <i name="ENCUT4O">     -1.00000000</i>
   <i type="int" name="EXXOEP">     0</i>
   <i type="int" name="FOURORBIT">     0</i>
   <i name="AEXX">      0.00000000</i>
   <i name="HFALPHA">      0.00000000</i>
   <i name="MCALPHA">      0.00000000</i>
   <i name="ALDAX">      1.00000000</i>
   <i name="AGGAX">      1.00000000</i>
   <i name="ALDAC">      1.00000000</i>
   <i name="AGGAC">      1.00000000</i>
   <i type="int" name="NKREDX">     1</i>
   <i type="int" name="NKREDY">     1</i>
   <i type="int" name="NKREDZ">     1</i>
   <i type="logical" name="SHIFTRED"> F  </i>
   <i type="logical" name="ODDONLY"> F  </i>
   <i type="logical" name="EVENONLY"> F  </i>
   <i type="int" name="LMAXFOCK">     0</i>
   <i type="int" name="NMAXFOCKAE">     0</i>
   <i type="logical" name="LFOCKAEDFT"> F  </i>
   <i name="HFSCREEN">      0.00000000</i>
   <i name="HFSCREENC">      0.00000000</i>
   <i type="int" name="NBANDSGWLOW">     0</i>
  </separator>
  <separator name="vdW DFT" >
   <i type="logical" name="LUSE_VDW"> F  </i>
   <i name="Zab_VDW">     -0.84910000</i>
   <i name="PARAM1">      0.12340000</i>
   <i name="PARAM2">      1.00000000</i>
   <i name="PARAM3">      0.00000000</i>
  </separator>
  <separator name="model GW" >
   <i type="int" name="MODEL_GW">     0</i>
   <i name="MODEL_EPS0">     23.40235203</i>
   <i name="MODEL_ALPHA">      1.00000000</i>
  </separator>
  <separator name="linear response parameters" >
   <i type="logical" name="LEPSILON"> F  </i>
   <i type="logical" name="LRPA"> F  </i>
   <i type="logical" name="LNABLA"> F  </i>
   <i type="logical" name="LVEL"> F  </i>
   <i type="int" name="KINTER">     0</i>
   <i name="CSHIFT">      0.10000000</i>
   <i name="OMEGAMAX">     -1.00000000</i>
   <i name="DEG_THRESHOLD">      0.00200000</i>
   <i name="RTIME">     -0.10000000</i>
   <i name="WPLASMAI">      0.00000000</i>
   <v name="DFIELD">      0.00000000      0.00000000      0.00000000</v>
   <v name="WPLASMA">      0.00000000      0.00000000      0.00000000      0.00000000      0.00000000      0.00000000      0.00000000      0.00000000      0.00000000</v>
  </separator>
  <separator name="orbital magnetization" >
   <i type="logical" name="NUCIND"> F  </i>
   <v name="MAGPOS">      0.00000000      0.00000000      0.00000000</v>
   <i type="logical" name="LNICSALL"> T  </i>
   <i type="logical" name="ORBITALMAG"> F  </i>
   <i type="logical" name="LMAGBLOCH"> F  </i>
   <i type="logical" name="LCHIMAG"> F  </i>
   <i type="logical" name="LGAUGE"> T  </i>
   <i type="int" name="MAGATOM">     0</i>
   <v name="MAGDIPOL">      0.00000000      0.00000000      0.00000000</v>
   <v name="AVECCONST">      0.00000000      0.00000000      0.00000000</v>
  </separator>
  <separator name="response functions" >
   <i type="logical" name="LADDER"> F  </i>
   <i type="logical" name="LRPAFORCE"> F  </i>
   <i type="logical" name="LFXC"> F  </i>
   <i type="logical" name="LHARTREE"> T  </i>
   <i type="int" name="IBSE">     0</i>
   <v type="int" name="KPOINT">    -1     0     0     0</v>
   <i type="logical" name="LTCTE"> F  </i>
   <i type="logical" name="LTETE"> F  </i>
   <i type="logical" name="LTRIPLET"> F  </i>
   <i type="logical" name="LFXCEPS"> F  </i>
   <i type="logical" name="LFXHEG"> F  </i>
   <i type="int" name="NATURALO">     2</i>
   <i type="logical" name="L2ORDER"> F  </i>
   <i type="logical" name="LMP2LT"> F  </i>
   <i type="logical" name="LUSEW"> F  </i>
   <i name="ENCUTGW">     -2.00000000</i>
   <i name="ENCUTGWSOFT">     -2.00000000</i>
   <i name="ENCUTLF">     -1.00000000</i>
   <i type="int" name="LMAXMP2">    -1</i>
   <i name="SCISSOR">      0.00000000</i>
   <i type="int" name="NOMEGA">     0</i>
   <i type="int" name="NOMEGAR">     0</i>
   <i type="int" name="NBANDSGW">    -1</i>
   <i type="int" name="NBANDSO">    -1</i>
   <i type="int" name="NBANDSV">    -1</i>
   <i type="int" name="NELM">     1</i>
   <i type="int" name="NELMHF">     1</i>
   <i type="int" name="DIM">     3</i>
   <i type="int" name="ANTIRES">     0</i>
   <i name="OMEGAMAX">    -30.00000000</i>
   <i name="OMEGAMIN">    -30.00000000</i>
   <i name="OMEGATL">   -200.00000000</i>
   <i type="int" name="OMEGAGRID">   140</i>
   <i name="CSHIFT">     -0.10000000</i>
   <i type="logical" name="SELFENERGY"> F  </i>
   <i type="logical" name="LSPECTRAL"> F  </i>
   <i type="logical" name="LSPECTRALGW"> F  </i>
   <i type="logical" name="LSINGLES"> F  </i>
   <i type="logical" name="LFERMIGW"> F  </i>
   <i type="logical" name="ODDONLYGW"> F  </i>
   <i type="logical" name="EVENONLYGW"> F  </i>
   <i type="int" name="NKREDLFX">     1</i>
   <i type="int" name="NKREDLFY">     1</i>
   <i type="int" name="NKREDLFZ">     1</i>
   <i type="int" name="MAXMEM">  2800</i>
   <i type="int" name="TELESCOPE">     0</i>
   <i type="int" name="TAUPAR">     1</i>
   <i type="int" name="OMEGAPAR">    -1</i>
   <i name="LAMBDA">      1.00000000</i>
  </separator>
  <separator name="External order field" >
   <i name="OFIELD_KAPPA">      0.00000000</i>
   <v name="OFIELD_K">      0.00000000      0.00000000      0.00000000</v>
   <i name="OFIELD_Q6_NEAR">      0.00000000</i>
   <i name="OFIELD_Q6_FAR">      0.00000000</i>
   <i name="OFIELD_A">      0.00000000</i>
  </separator>
 </parameters>
 <atominfo>
  <atoms>      20 </atoms>
  <types>       1 </types>
  <array name="atoms" >
   <dimension dim="1">ion</dimension>
   <field type="string">element</field>
   <field type="int">atomtype</field>
   <set>
    <rc><c>Pb</c><c>   1</c></rc>
    <rc><c>Pb</c><c>   1</c></rc>
    <rc><c>Pb</c><c>   1</c></rc>
    <rc><c>Pb</c><c>   1</c></rc>
    <rc><c>Pb</c><c>   1</c></rc>
    <rc><c>Pb</c><c>   1</c></rc>
    <rc><c>Pb</c><c>   1</c></rc>
    <rc><c>Pb</c><c>   1</c></rc>
    <rc><c>Pb</c><c>   1</c></rc>
    <rc><c>Pb</c><c>   1</c></rc>
    <rc><c>Pb</c><c>   1</c></rc>
    <rc><c>Pb</c><c>   1</c></rc>
    <rc><c>Pb</c><c>   1</c></rc>
    <rc><c>Pb</c><c>   1</c></rc>
    <rc><c>Pb</c><c>   1</c></rc>
    <rc><c>Pb</c><c>   1</c></rc>
    <rc><c>Pb</c><c>   1</c></rc>
    <rc><c>Pb</c><c>   1</c></rc>
    <rc><c>Pb</c><c>   1</c></rc>
    <rc><c>Pb</c><c>   1</c></rc>
   </set>
  </array>
  <array name="atomtypes" >
   <dimension dim="1">type</dimension>
   <field type="int">atomspertype</field>
   <field type="string">element</field>
   <field>mass</field>
   <field>valence</field>
   <field type="string">pseudopotential</field>
   <set>
    <rc><c>  20</c><c>Pb</c><c>    207.20000000</c><c>     14.00000000</c><c>  PAW_PBE Pb_d 06Sep2000                </c></rc>
   </set>
  </array>
 </atominfo>
 <structure name="initialpos" >
  <crystal>
   <varray name="basis" >
    <v>       2.46549997      -2.46549997       0.00000000 </v>
    <v>       0.00000000       2.46549997      -2.46549997 </v>
    <v>      42.77667205      42.77667205      42.77667205 </v>
   </varray>
   <i name="volume">    780.07840094 </i>
   <varray name="rec_basis" >
    <v>       0.27039816      -0.13519908      -0.13519908 </v>
    <v>       0.13519908       0.13519908      -0.27039816 </v>
    <v>       0.00779241       0.00779241       0.00779241 </v>
   </varray>
  </crystal>
  <varray name="positions" >
   <v>       0.66666695       0.33333389       0.00000000 </v>
   <v>       0.00000027       0.00000054       0.03842437 </v>
   <v>       0.33333362       0.66666722       0.07684874 </v>
   <v>       0.66666695       0.33333389       0.11527311 </v>
   <v>       0.00000027       0.00000054       0.15369748 </v>
   <v>       0.33333362       0.66666722       0.19212185 </v>
   <v>       0.66666695       0.33333389       0.23054622 </v>
   <v>       0.00000027       0.00000054       0.26897059 </v>
   <v>       0.33333362       0.66666722       0.30739496 </v>
   <v>       0.66666695       0.33333389       0.34581933 </v>
   <v>       0.00000027       0.00000054       0.38424370 </v>
   <v>       0.33333362       0.66666722       0.42266807 </v>
   <v>       0.66666695       0.33333389       0.46109244 </v>
   <v>       0.00000027       0.00000054       0.49951681 </v>
   <v>       0.33333362       0.66666722       0.53794118 </v>
   <v>       0.66666695       0.33333389       0.57636555 </v>
   <v>       0.00000027       0.00000054       0.61478992 </v>
   <v>       0.33333362       0.66666722       0.65321429 </v>
   <v>       0.66666695       0.33333389       0.69163866 </v>
   <v>       0.00000027       0.00000054       0.73006303 </v>
  </varray>
 </structure>
 <calculation>
  <scstep>
   <time name="dav">   39.31   39.34</time>
   <time name="total">   39.36   39.39</time>
   <energy>
    <i name="alphaZ">    841.29232037 </i>
    <i name="ewald"> 198569.15078900 </i>
    <i name="hartreedc">-231338.82348077 </i>
    <i name="XCdc">    777.71239837 </i>
    <i name="pawpsdc">  28690.89944818 </i>
    <i name="pawaedc"> -28370.89309282 </i>
    <i name="eentropy">     -0.02301422 </i>
    <i name="bandstr">   1115.46875723 </i>
    <i name="atom">  33243.38985548 </i>
    <i name="e_fr_energy">   3528.17398081 </i>
    <i name="e_wo_entrp">   3528.19699503 </i>
    <i name="e_0_energy">   3528.18548792 </i>
   </energy>
  </scstep>
  <scstep>
   <time name="dav">   38.40   38.43</time>
   <time name="total">   38.40   38.44</time>
   <energy>
    <i name="e_fr_energy">    388.48084852 </i>
    <i name="e_wo_entrp">    388.51410946 </i>
    <i name="e_0_energy">    388.49747899 </i>
   </energy>
  </scstep>
  <scstep>
   <time name="dav">   42.21   42.24</time>
   <time name="total">   42.22   42.25</time>
   <energy>
    <i name="e_fr_energy">    -48.41208333 </i>
    <i name="e_wo_entrp">    -48.37040856 </i>
    <i name="e_0_energy">    -48.39124594 </i>
   </energy>
  </scstep>
  <scstep>
   <time name="dav">   43.52   43.54</time>
   <time name="total">   43.52   43.55</time>
   <energy>
    <i name="e_fr_energy">    -78.79743484 </i>
    <i name="e_wo_entrp">    -78.74836061 </i>
    <i name="e_0_energy">    -78.77289772 </i>
   </energy>
  </scstep>
  <scstep>
   <time name="dav">   44.77   44.80</time>
   <time name="total">   45.71   45.74</time>
   <energy>
    <i name="e_fr_energy">    -79.92405648 </i>
    <i name="e_wo_entrp">    -79.87449310 </i>
    <i name="e_0_energy">    -79.89927479 </i>
   </energy>
  </scstep>
  <scstep>
   <time name="dav">   61.87   61.91</time>
   <time name="total">   62.84   62.89</time>
   <energy>
    <i name="e_fr_energy">    -86.41184591 </i>
    <i name="e_wo_entrp">    -86.35456250 </i>
    <i name="e_0_energy">    -86.38320421 </i>
   </energy>
  </scstep>
  <scstep>
   <time name="dav">   54.19   54.23</time>
   <time name="total">   55.15   55.19</time>
   <energy>
    <i name="e_fr_energy">    -80.55540263 </i>
    <i name="e_wo_entrp">    -80.50737388 </i>
    <i name="e_0_energy">    -80.53138825 </i>
   </energy>
  </scstep>
  <scstep>
   <time name="dav">   57.41   57.45</time>
   <time name="total">   58.36   58.41</time>
   <energy>
    <i name="e_fr_energy">    -82.01275752 </i>
    <i name="e_wo_entrp">    -81.96232882 </i>
    <i name="e_0_energy">    -81.98754317 </i>
   </energy>
  </scstep>
  <scstep>
   <time name="dav">   54.31   54.34</time>
   <time name="total">   55.28   55.31</time>
   <energy>
    <i name="e_fr_energy">    -79.63226833 </i>
    <i name="e_wo_entrp">    -79.58306897 </i>
    <i name="e_0_energy">    -79.60766865 </i>
   </energy>
  </scstep>
  <scstep>
   <time name="dav">   51.25   51.28</time>
   <time name="total">   52.21   52.24</time>
   <energy>
    <i name="e_fr_energy">    -79.51529403 </i>
    <i name="e_wo_entrp">    -79.46714629 </i>
    <i name="e_0_energy">    -79.49122016 </i>
   </energy>
  </scstep>
  <scstep>
   <time name="dav">   47.67   47.71</time>
   <time name="total">   48.64   48.67</time>
   <energy>
    <i name="e_fr_energy">    -79.51411299 </i>
    <i name="e_wo_entrp">    -79.46534958 </i>
    <i name="e_0_energy">    -79.48973128 </i>
   </energy>
  </scstep>
  <scstep>
   <time name="dav">   47.02   47.04</time>
   <time name="total">   47.98   48.00</time>
   <energy>
    <i name="e_fr_energy">    -79.51778117 </i>
    <i name="e_wo_entrp">    -79.46904686 </i>
    <i name="e_0_energy">    -79.49341401 </i>
   </energy>
  </scstep>
  <scstep>
   <time name="dav">   42.74   42.77</time>
   <time name="total">   43.70   43.73</time>
   <energy>
    <i name="e_fr_energy">    -79.51632407 </i>
    <i name="e_wo_entrp">    -79.46742919 </i>
    <i name="e_0_energy">    -79.49187663 </i>
   </energy>
  </scstep>
  <scstep>
   <time name="dav">   49.05   49.07</time>
   <time name="total">   50.00   50.03</time>
   <energy>
    <i name="e_fr_energy">    -79.51561328 </i>
    <i name="e_wo_entrp">    -79.46680434 </i>
    <i name="e_0_energy">    -79.49120881 </i>
   </energy>
  </scstep>
  <scstep>
   <time name="dav">   47.75   47.80</time>
   <time name="total">   48.72   48.76</time>
   <energy>
    <i name="e_fr_energy">    -79.51536046 </i>
    <i name="e_wo_entrp">    -79.46650837 </i>
    <i name="e_0_energy">    -79.49093441 </i>
   </energy>
  </scstep>
  <scstep>
   <time name="dav">   48.82   48.85</time>
   <time name="total">   49.78   49.81</time>
   <energy>
    <i name="e_fr_energy">    -79.51514478 </i>
    <i name="e_wo_entrp">    -79.46627411 </i>
    <i name="e_0_energy">    -79.49070945 </i>
   </energy>
  </scstep>
  <scstep>
   <time name="dav">   42.20   42.22</time>
   <time name="total">   43.16   43.17</time>
   <energy>
    <i name="e_fr_energy">    -79.51522833 </i>
    <i name="e_wo_entrp">    -79.46635535 </i>
    <i name="e_0_energy">    -79.49079184 </i>
   </energy>
  </scstep>
  <scstep>
   <time name="dav">   45.88   45.92</time>
   <time name="total">   46.84   46.88</time>
   <energy>
    <i name="e_fr_energy">    -79.51524417 </i>
    <i name="e_wo_entrp">    -79.46637043 </i>
    <i name="e_0_energy">    -79.49080730 </i>
   </energy>
  </scstep>
  <scstep>
   <time name="dav">   29.41   29.43</time>
   <time name="total">   29.45   29.46</time>
   <energy>
    <i name="alphaZ">    841.29232037 </i>
    <i name="ewald"> 198569.15078900 </i>
    <i name="hartreedc">-231329.69326481 </i>
    <i name="XCdc">    773.77049251 </i>
    <i name="pawpsdc">  29911.84001182 </i>
    <i name="pawaedc"> -29603.13852361 </i>
    <i name="eentropy">     -0.04887374 </i>
    <i name="bandstr">  -2486.07805178 </i>
    <i name="atom">  33243.38985548 </i>
    <i name="e_fr_energy">    -79.51524476 </i>
    <i name="e_wo_entrp">    -79.46637102 </i>
    <i name="e_0_energy">    -79.49080789 </i>
   </energy>
  </scstep>
  <structure>
   <crystal>
    <varray name="basis" >
     <v>       2.46549997      -2.46549997       0.00000000 </v>
     <v>       0.00000000       2.46549997      -2.46549997 </v>
     <v>      42.77667205      42.77667205      42.77667205 </v>
    </varray>
    <i name="volume">    780.07840094 </i>
    <varray name="rec_basis" >
     <v>       0.27039816      -0.13519908      -0.13519908 </v>
     <v>       0.13519908       0.13519908      -0.27039816 </v>
     <v>       0.00779241       0.00779241       0.00779241 </v>
    </varray>
   </crystal>
   <varray name="positions" >
    <v>       0.66666695       0.33333389       0.00000000 </v>
    <v>       0.00000027       0.00000054       0.03842437 </v>
    <v>       0.33333362       0.66666722       0.07684874 </v>
    <v>       0.66666695       0.33333389       0.11527311 </v>
    <v>       0.00000027       0.00000054       0.15369748 </v>
    <v>       0.33333362       0.66666722       0.19212185 </v>
    <v>       0.66666695       0.33333389       0.23054622 </v>
    <v>       0.00000027       0.00000054       0.26897059 </v>
    <v>       0.33333362       0.66666722       0.30739496 </v>
    <v>       0.66666695       0.33333389       0.34581933 </v>
    <v>       0.00000027       0.00000054       0.38424370 </v>
    <v>       0.33333362       0.66666722       0.42266807 </v>
    <v>       0.66666695       0.33333389       0.46109244 </v>
    <v>       0.00000027       0.00000054       0.49951681 </v>
    <v>       0.33333362       0.66666722       0.53794118 </v>
    <v>       0.66666695       0.33333389       0.57636555 </v>
    <v>       0.00000027       0.00000054       0.61478992 </v>
    <v>       0.33333362       0.66666722       0.65321429 </v>
    <v>       0.66666695       0.33333389       0.69163866 </v>
    <v>       0.00000027       0.00000054       0.73006303 </v>
   </varray>
  </structure>
  <varray name="forces" >
   <v>       0.12435791       0.12435791       0.12435791 </v>
   <v>      -0.14156295      -0.14156295      -0.14156295 </v>
   <v>       0.01008739       0.01008739       0.01008739 </v>
   <v>      -0.00318094      -0.00318094      -0.00318094 </v>
   <v>       0.00918616       0.00918616       0.00918616 </v>
   <v>       0.00187888       0.00187888       0.00187888 </v>
   <v>      -0.00432631      -0.00432631      -0.00432631 </v>
   <v>       0.00899058       0.00899058       0.00899058 </v>
   <v>      -0.01317312      -0.01317312      -0.01317312 </v>
   <v>       0.01327874       0.01327874       0.01327874 </v>
   <v>      -0.01327874      -0.01327874      -0.01327874 </v>
   <v>       0.01317312       0.01317312       0.01317312 </v>
   <v>      -0.00899058      -0.00899058      -0.00899058 </v>
   <v>       0.00432631       0.00432631       0.00432631 </v>
   <v>      -0.00187888      -0.00187888      -0.00187888 </v>
   <v>      -0.00918616      -0.00918616      -0.00918616 </v>
   <v>       0.00318094       0.00318094       0.00318094 </v>
   <v>      -0.01008739      -0.01008739      -0.01008739 </v>
   <v>       0.14156295       0.14156295       0.14156295 </v>
   <v>      -0.12435791      -0.12435791      -0.12435791 </v>
  </varray>
  <varray name="stress" >
   <v>      -2.42781980       0.08716391       0.08716391 </v>
   <v>       0.08716391      -2.42781980       0.08716391 </v>
   <v>       0.08716391       0.08716391      -2.42781980 </v>
  </varray>
  <energy>
   <i name="e_fr_energy">    -79.51524476 </i>
   <i name="e_wo_entrp">    -79.49080789 </i>
   <i name="e_0_energy">     -0.04887374 </i>
  </energy>
  <time name="totalsc">  961.70  962.35</time>
 </calculation>
 <calculation>
  <scstep>
   <time name="dav">   41.11   41.13</time>
   <time name="total">   42.08   42.10</time>
   <energy>
    <i name="alphaZ">    841.29232037 </i>
    <i name="ewald"> 198580.33375206 </i>
    <i name="hartreedc">-231341.31035178 </i>
    <i name="XCdc">    773.79264456 </i>
    <i name="pawpsdc">  29912.20761147 </i>
    <i name="pawaedc"> -29603.50737344 </i>
    <i name="eentropy">     -0.04873494 </i>
    <i name="bandstr">  -2485.66673609 </i>
    <i name="atom">  33243.38985548 </i>
    <i name="e_fr_energy">    -79.51701232 </i>
    <i name="e_wo_entrp">    -79.46827738 </i>
    <i name="e_0_energy">    -79.49264485 </i>
   </energy>
  </scstep>
  <scstep>
   <time name="dav">   59.04   59.07</time>
   <time name="total">   60.01   60.04</time>
   <energy>
    <i name="e_fr_energy">    -79.53617114 </i>
    <i name="e_wo_entrp">    -79.48747719 </i>
    <i name="e_0_energy">    -79.51182417 </i>
   </energy>
  </scstep>
  <scstep>
   <time name="dav">   48.19   48.22</time>
   <time name="total">   49.16   49.19</time>
   <energy>
    <i name="e_fr_energy">    -79.54432178 </i>
    <i name="e_wo_entrp">    -79.49555323 </i>
    <i name="e_0_energy">    -79.51993751 </i>
   </energy>
  </scstep>
  <scstep>
   <time name="dav">   49.86   49.89</time>
   <time name="total">   50.82   50.85</time>
   <energy>
    <i name="e_fr_energy">    -79.52947011 </i>
    <i name="e_wo_entrp">    -79.48103534 </i>
    <i name="e_0_energy">    -79.50525273 </i>
   </energy>
  </scstep>
  <scstep>
   <time name="dav">   50.80   50.84</time>
   <time name="total">   51.77   51.81</time>
   <energy>
    <i name="e_fr_energy">    -79.52460274 </i>
    <i name="e_wo_entrp">    -79.47585670 </i>
    <i name="e_0_energy">    -79.50022972 </i>
   </energy>
  </scstep>
  <scstep>
   <time name="dav">   44.70   44.74</time>
   <time name="total">   45.66   45.70</time>
   <energy>
    <i name="e_fr_energy">    -79.52503407 </i>
    <i name="e_wo_entrp">    -79.47624841 </i>
    <i name="e_0_energy">    -79.50064124 </i>
   </energy>
  </scstep>
  <scstep>
   <time name="dav">   43.03   43.05</time>
   <time name="total">   43.99   44.01</time>
   <energy>
    <i name="e_fr_energy">    -79.52509092 </i>
    <i name="e_wo_entrp">    -79.47633723 </i>
    <i name="e_0_energy">    -79.50071408 </i>
   </energy>
  </scstep>
  <scstep>
   <time name="dav">   49.03   49.05</time>
   <time name="total">   50.00   50.02</time>
   <energy>
    <i name="e_fr_energy">    -79.52510832 </i>
    <i name="e_wo_entrp">    -79.47634772 </i>
    <i name="e_0_energy">    -79.50072802 </i>
   </energy>
  </scstep>
  <scstep>
   <time name="dav">   45.70   45.73</time>
   <time name="total">   46.66   46.69</time>
   <energy>
    <i name="e_fr_energy">    -79.52514977 </i>
    <i name="e_wo_entrp">    -79.47638340 </i>
    <i name="e_0_energy">    -79.50076658 </i>
   </energy>
  </scstep>
  <scstep>
   <time name="dav">   47.58   47.61</time>
   <time name="total">   48.55   48.58</time>
   <energy>
    <i name="e_fr_energy">    -79.52522259 </i>
    <i name="e_wo_entrp">    -79.47645915 </i>
    <i name="e_0_energy">    -79.50084087 </i>
   </energy>
  </scstep>
  <scstep>
   <time name="dav">   49.47   49.49</time>
   <time name="total">   50.44   50.47</time>
   <energy>
    <i name="e_fr_energy">    -79.52523657 </i>
    <i name="e_wo_entrp">    -79.47647021 </i>
    <i name="e_0_energy">    -79.50085339 </i>
   </energy>
  </scstep>
  <scstep>
   <time name="dav">   36.86   36.87</time>
   <time name="total">   37.82   37.84</time>
   <energy>
    <i name="e_fr_energy">    -79.52525232 </i>
    <i name="e_wo_entrp">    -79.47648503 </i>
    <i name="e_0_energy">    -79.50086868 </i>
   </energy>
  </scstep>
  <scstep>
   <time name="dav">   40.61   40.63</time>
   <time name="total">   41.58   41.60</time>
   <energy>
    <i name="e_fr_energy">    -79.52532259 </i>
    <i name="e_wo_entrp">    -79.47655326 </i>
    <i name="e_0_energy">    -79.50093792 </i>
   </energy>
  </scstep>
  <scstep>
   <time name="dav">   39.60   39.62</time>
   <time name="total">   40.56   40.58</time>
   <energy>
    <i name="e_fr_energy">    -79.52535451 </i>
    <i name="e_wo_entrp">    -79.47658100 </i>
    <i name="e_0_energy">    -79.50096775 </i>
   </energy>
  </scstep>
  <scstep>
   <time name="dav">   29.29   29.31</time>
   <time name="total">   30.26   30.27</time>
   <energy>
    <i name="e_fr_energy">    -79.52537438 </i>
    <i name="e_wo_entrp">    -79.47660171 </i>
    <i name="e_0_energy">    -79.50098805 </i>
   </energy>
  </scstep>
  <scstep>
   <time name="dav">   28.80   28.82</time>
   <time name="total">   29.77   29.78</time>
   <energy>
    <i name="e_fr_energy">    -79.52540347 </i>
    <i name="e_wo_entrp">    -79.47662916 </i>
    <i name="e_0_energy">    -79.50101631 </i>
   </energy>
  </scstep>
  <scstep>
   <time name="dav">   28.40   28.42</time>
   <time name="total">   29.38   29.39</time>
   <energy>
    <i name="e_fr_energy">    -79.52542342 </i>
    <i name="e_wo_entrp">    -79.47664986 </i>
    <i name="e_0_energy">    -79.50103664 </i>
   </energy>
  </scstep>
  <scstep>
   <time name="dav">   29.26   29.27</time>
   <time name="total">   30.24   30.26</time>
   <energy>
    <i name="e_fr_energy">    -79.52542583 </i>
    <i name="e_wo_entrp">    -79.47665214 </i>
    <i name="e_0_energy">    -79.50103899 </i>
   </energy>
  </scstep>
  <scstep>
   <time name="dav">   27.30   27.32</time>
   <time name="total">   28.28   28.30</time>
   <energy>
    <i name="e_fr_energy">    -79.52542755 </i>
    <i name="e_wo_entrp">    -79.47665371 </i>
    <i name="e_0_energy">    -79.50104063 </i>
   </energy>
  </scstep>
  <scstep>
   <time name="dav">   27.45   27.47</time>
   <time name="total">   27.49   27.51</time>
   <energy>
    <i name="alphaZ">    841.29232037 </i>
    <i name="ewald"> 198580.33375206 </i>
    <i name="hartreedc">-231346.02955183 </i>
    <i name="XCdc">    773.79814941 </i>
    <i name="pawpsdc">  29914.50356079 </i>
    <i name="pawaedc"> -29605.82128016 </i>
    <i name="eentropy">     -0.04877381 </i>
    <i name="bandstr">  -2480.94346084 </i>
    <i name="atom">  33243.38985548 </i>
    <i name="e_fr_energy">    -79.52542853 </i>
    <i name="e_wo_entrp">    -79.47665472 </i>
    <i name="e_0_energy">    -79.50104163 </i>
   </energy>
  </scstep>
  <structure>
   <crystal>
    <varray name="basis" >
     <v>       2.46549997      -2.46549997       0.00000000 </v>
     <v>       0.00000000       2.46549997      -2.46549997 </v>
     <v>      42.77667205      42.77667205      42.77667205 </v>
    </varray>
    <i name="volume">    780.07840094 </i>
    <varray name="rec_basis" >
     <v>       0.27039816      -0.13519908      -0.13519908 </v>
     <v>       0.13519908       0.13519908      -0.27039816 </v>
     <v>       0.00779241       0.00779241       0.00779241 </v>
    </varray>
   </crystal>
   <varray name="positions" >
    <v>       0.66666695       0.33333389       0.00014025 </v>
    <v>       0.00000027       0.00000054       0.03826472 </v>
    <v>       0.33333362       0.66666722       0.07686012 </v>
    <v>       0.66666695       0.33333389       0.11526952 </v>
    <v>       0.00000027       0.00000054       0.15370784 </v>
    <v>       0.33333362       0.66666722       0.19212397 </v>
    <v>       0.66666695       0.33333389       0.23054134 </v>
    <v>       0.00000027       0.00000054       0.26898073 </v>
    <v>       0.33333362       0.66666722       0.30738010 </v>
    <v>       0.66666695       0.33333389       0.34583430 </v>
    <v>       0.00000027       0.00000054       0.38422872 </v>
    <v>       0.33333362       0.66666722       0.42268292 </v>
    <v>       0.66666695       0.33333389       0.46108230 </v>
    <v>       0.00000027       0.00000054       0.49952169 </v>
    <v>       0.33333362       0.66666722       0.53793906 </v>
    <v>       0.66666695       0.33333389       0.57635519 </v>
    <v>       0.00000027       0.00000054       0.61479350 </v>
    <v>       0.33333362       0.66666722       0.65320291 </v>
    <v>       0.66666695       0.33333389       0.69179831 </v>
    <v>       0.00000027       0.00000054       0.72992278 </v>
   </varray>
  </structure>
  <varray name="forces" >
   <v>       0.10852465       0.10852465       0.10852465 </v>
   <v>      -0.11630288      -0.11630288      -0.11630288 </v>
   <v>       0.00295328       0.00295328       0.00295328 </v>
   <v>      -0.00235315      -0.00235315      -0.00235315 </v>
   <v>       0.00676180       0.00676180       0.00676180 </v>
   <v>       0.00200185       0.00200185       0.00200185 </v>
   <v>      -0.00312365      -0.00312365      -0.00312365 </v>
   <v>       0.00722806       0.00722806       0.00722806 </v>
   <v>      -0.01027486      -0.01027486      -0.01027486 </v>
   <v>       0.01041213       0.01041213       0.01041213 </v>
   <v>      -0.01041213      -0.01041213      -0.01041213 </v>
   <v>       0.01027486       0.01027486       0.01027486 </v>
   <v>      -0.00722806      -0.00722806      -0.00722806 </v>
   <v>       0.00312365       0.00312365       0.00312365 </v>
   <v>      -0.00200185      -0.00200185      -0.00200185 </v>
   <v>      -0.00676180      -0.00676180      -0.00676180 </v>
   <v>       0.00235315       0.00235315       0.00235315 </v>
   <v>      -0.00295328      -0.00295328      -0.00295328 </v>
   <v>       0.11630288       0.11630288       0.11630288 </v>
   <v>      -0.10852465      -0.10852465      -0.10852465 </v>
  </varray>
  <varray name="stress" >
   <v>      -2.31451418       0.09325902       0.09325902 </v>
   <v>       0.09325902      -2.31451418       0.09325902 </v>
   <v>       0.09325902       0.09325902      -2.31451418 </v>
  </varray>
  <energy>
   <i name="e_fr_energy">    -79.52542853 </i>
   <i name="e_wo_entrp">    -79.50104163 </i>
   <i name="e_0_energy">     -0.04877381 </i>
  </energy>
  <time name="totalsc">  893.95  894.42</time>
 </calculation>
 <calculation>
  <scstep>
   <time name="dav">   40.91   40.93</time>
   <time name="total">   41.87   41.89</time>
   <energy>
    <i name="alphaZ">    841.29232037 </i>
    <i name="ewald"> 198616.40960218 </i>
    <i name="hartreedc">-231381.50862516 </i>
    <i name="XCdc">    773.86051516 </i>
    <i name="pawpsdc">  29914.50741722 </i>
    <i name="pawaedc"> -29605.82544869 </i>
    <i name="eentropy">     -0.04866536 </i>
    <i name="bandstr">  -2481.50468837 </i>
    <i name="atom">  33243.38985548 </i>
    <i name="e_fr_energy">    -79.42771716 </i>
    <i name="e_wo_entrp">    -79.37905181 </i>
    <i name="e_0_energy">    -79.40338449 </i>
   </energy>
  </scstep>
  <scstep>
   <time name="dav">   50.05   50.07</time>
   <time name="total">   51.03   51.05</time>
   <energy>
    <i name="e_fr_energy">    -79.55680986 </i>
    <i name="e_wo_entrp">    -79.50820624 </i>
    <i name="e_0_energy">    -79.53250805 </i>
   </energy>
  </scstep>
  <scstep>
   <time name="dav">   52.03   52.06</time>
   <time name="total">   53.01   53.04</time>
   <energy>
    <i name="e_fr_energy">    -80.83718373 </i>
    <i name="e_wo_entrp">    -80.78354148 </i>
    <i name="e_0_energy">    -80.81036260 </i>
   </energy>
  </scstep>
  <scstep>
   <time name="dav">   55.85   55.89</time>
   <time name="total">   56.83   56.86</time>
   <energy>
    <i name="e_fr_energy">    -79.54789779 </i>
    <i name="e_wo_entrp">    -79.49965892 </i>
    <i name="e_0_energy">    -79.52377835 </i>
   </energy>
  </scstep>
  <scstep>
   <time name="dav">   54.17   54.21</time>
   <time name="total">   55.15   55.19</time>
   <energy>
    <i name="e_fr_energy">    -79.54680782 </i>
    <i name="e_wo_entrp">    -79.49804235 </i>
    <i name="e_0_energy">    -79.52242509 </i>
   </energy>
  </scstep>
  <scstep>
   <time name="dav">   49.10   49.15</time>
   <time name="total">   50.06   50.11</time>
   <energy>
    <i name="e_fr_energy">    -79.54317545 </i>
    <i name="e_wo_entrp">    -79.49449359 </i>
    <i name="e_0_energy">    -79.51883452 </i>
   </energy>
  </scstep>
  <scstep>
   <time name="dav">   43.10   43.12</time>
   <time name="total">   44.06   44.08</time>
   <energy>
    <i name="e_fr_energy">    -79.54387376 </i>
    <i name="e_wo_entrp">    -79.49522732 </i>
    <i name="e_0_energy">    -79.51955054 </i>
   </energy>
  </scstep>
  <scstep>
   <time name="dav">   44.24   44.26</time>
   <time name="total">   45.20   45.22</time>
   <energy>
    <i name="e_fr_energy">    -79.54391978 </i>
    <i name="e_wo_entrp">    -79.49522375 </i>
    <i name="e_0_energy">    -79.51957177 </i>
   </energy>
  </scstep>
  <scstep>
   <time name="dav">   49.42   49.44</time>
   <time name="total">   50.37   50.39</time>
   <energy>
    <i name="e_fr_energy">    -79.54389157 </i>
    <i name="e_wo_entrp">    -79.49523599 </i>
    <i name="e_0_energy">    -79.51956378 </i>
   </energy>
  </scstep>
  <scstep>
   <time name="dav">   48.30   48.32</time>
   <time name="total">   49.27   49.29</time>
   <energy>
    <i name="e_fr_energy">    -79.54386473 </i>
    <i name="e_wo_entrp">    -79.49516877 </i>
    <i name="e_0_energy">    -79.51951675 </i>
   </energy>
  </scstep>
  <scstep>
   <time name="dav">   45.56   45.58</time>
   <time name="total">   46.52   46.54</time>
   <energy>
    <i name="e_fr_energy">    -79.54386417 </i>
    <i name="e_wo_entrp">    -79.49518986 </i>
    <i name="e_0_energy">    -79.51952701 </i>
   </energy>
  </scstep>
  <scstep>
   <time name="dav">   51.90   51.93</time>
   <time name="total">   52.87   52.89</time>
   <energy>
    <i name="e_fr_energy">    -79.54386618 </i>
    <i name="e_wo_entrp">    -79.49519154 </i>
    <i name="e_0_energy">    -79.51952886 </i>
   </energy>
  </scstep>
  <scstep>
   <time name="dav">   43.58   43.60</time>
   <time name="total">   44.55   44.56</time>
   <energy>
    <i name="e_fr_energy">    -79.54386919 </i>
    <i name="e_wo_entrp">    -79.49519523 </i>
    <i name="e_0_energy">    -79.51953221 </i>
   </energy>
  </scstep>
  <scstep>
   <time name="dav">   36.25   36.27</time>
   <time name="total">   36.30   36.31</time>
   <energy>
    <i name="alphaZ">    841.29232037 </i>
    <i name="ewald"> 198616.40960218 </i>
    <i name="hartreedc">-231380.97980005 </i>
    <i name="XCdc">    773.86661375 </i>
    <i name="pawpsdc">  29923.04255834 </i>
    <i name="pawaedc"> -29614.51836919 </i>
    <i name="eentropy">     -0.04867545 </i>
    <i name="bandstr">  -2481.99797441 </i>
    <i name="atom">  33243.38985548 </i>
    <i name="e_fr_energy">    -79.54386898 </i>
    <i name="e_wo_entrp">    -79.49519353 </i>
    <i name="e_0_energy">    -79.51953125 </i>
   </energy>
  </scstep>
  <structure>
   <crystal>
    <varray name="basis" >
     <v>       2.46549997      -2.46549997       0.00000000 </v>
     <v>       0.00000000       2.46549997      -2.46549997 </v>
     <v>      42.77667205      42.77667205      42.77667205 </v>
    </varray>
    <i name="volume">    780.07840094 </i>
    <varray name="rec_basis" >
     <v>       0.27039816      -0.13519908      -0.13519908 </v>
     <v>       0.13519908       0.13519908      -0.27039816 </v>
     <v>       0.00779241       0.00779241       0.00779241 </v>
    </varray>
   </crystal>
   <varray name="positions" >
    <v>       0.66666695       0.33333389       0.00056099 </v>
    <v>       0.00000027       0.00000054       0.03778576 </v>
    <v>       0.33333362       0.66666722       0.07689425 </v>
    <v>       0.66666695       0.33333389       0.11525876 </v>
    <v>       0.00000027       0.00000054       0.15373892 </v>
    <v>       0.33333362       0.66666722       0.19213032 </v>
    <v>       0.66666695       0.33333389       0.23052670 </v>
    <v>       0.00000027       0.00000054       0.26901115 </v>
    <v>       0.33333362       0.66666722       0.30733553 </v>
    <v>       0.66666695       0.33333389       0.34587923 </v>
    <v>       0.00000027       0.00000054       0.38418380 </v>
    <v>       0.33333362       0.66666722       0.42272749 </v>
    <v>       0.66666695       0.33333389       0.46105188 </v>
    <v>       0.00000027       0.00000054       0.49953632 </v>
    <v>       0.33333362       0.66666722       0.53793270 </v>
    <v>       0.66666695       0.33333389       0.57632411 </v>
    <v>       0.00000027       0.00000054       0.61480427 </v>
    <v>       0.33333362       0.66666722       0.65316878 </v>
    <v>       0.66666695       0.33333389       0.69227726 </v>
    <v>       0.00000027       0.00000054       0.72950203 </v>
   </varray>
  </structure>
  <varray name="forces" >
   <v>       0.04923368       0.04923368       0.04923368 </v>
   <v>      -0.03706928      -0.03706928      -0.03706928 </v>
   <v>      -0.01758410      -0.01758410      -0.01758410 </v>
   <v>       0.00115544       0.00115544       0.00115544 </v>
   <v>       0.00048032       0.00048032       0.00048032 </v>
   <v>       0.00362750       0.00362750       0.00362750 </v>
   <v>      -0.00011940      -0.00011940      -0.00011940 </v>
   <v>       0.00118380       0.00118380       0.00118380 </v>
   <v>      -0.00230160      -0.00230160      -0.00230160 </v>
   <v>       0.00165938       0.00165938       0.00165938 </v>
   <v>      -0.00165938      -0.00165938      -0.00165938 </v>
   <v>       0.00230160       0.00230160       0.00230160 </v>
   <v>      -0.00118380      -0.00118380      -0.00118380 </v>
   <v>       0.00011940       0.00011940       0.00011940 </v>
   <v>      -0.00362750      -0.00362750      -0.00362750 </v>
   <v>      -0.00048032      -0.00048032      -0.00048032 </v>
   <v>      -0.00115544      -0.00115544      -0.00115544 </v>
   <v>       0.01758410       0.01758410       0.01758410 </v>
   <v>       0.03706928       0.03706928       0.03706928 </v>
   <v>      -0.04923368      -0.04923368      -0.04923368 </v>
  </varray>
  <varray name="stress" >
   <v>      -1.81794263       0.27052606       0.27052606 </v>
   <v>       0.27052606      -1.81794263       0.27052606 </v>
   <v>       0.27052606       0.27052606      -1.81794263 </v>
  </varray>
  <energy>
   <i name="e_fr_energy">    -79.54386898 </i>
   <i name="e_wo_entrp">    -79.51953125 </i>
   <i name="e_0_energy">     -0.04867545 </i>
  </energy>
  <time name="totalsc">  736.61  736.99</time>
 </calculation>
 <calculation>
  <scstep>
   <time name="dav">   41.10   41.11</time>
   <time name="total">   42.06   42.07</time>
   <energy>
    <i name="alphaZ">    841.29232037 </i>
    <i name="ewald"> 198699.82350990 </i>
    <i name="hartreedc">-231462.59237358 </i>
    <i name="XCdc">    774.03166038 </i>
    <i name="pawpsdc">  29923.04332840 </i>
    <i name="pawaedc"> -29614.51945649 </i>
    <i name="eentropy">     -0.04961454 </i>
    <i name="bandstr">  -2483.37877365 </i>
    <i name="atom">  33243.38985548 </i>
    <i name="e_fr_energy">    -78.95954374 </i>
    <i name="e_wo_entrp">    -78.90992920 </i>
    <i name="e_0_energy">    -78.93473647 </i>
   </energy>
  </scstep>
  <scstep>
   <time name="dav">   48.15   48.17</time>
   <time name="total">   49.10   49.12</time>
   <energy>
    <i name="e_fr_energy">    -79.59832783 </i>
    <i name="e_wo_entrp">    -79.54834041 </i>
    <i name="e_0_energy">    -79.57333412 </i>
   </energy>
  </scstep>
  <scstep>
   <time name="dav">   54.08   54.11</time>
   <time name="total">   55.04   55.07</time>
   <energy>
    <i name="e_fr_energy">    -82.81880894 </i>
    <i name="e_wo_entrp">    -82.76850752 </i>
    <i name="e_0_energy">    -82.79365823 </i>
   </energy>
  </scstep>
  <scstep>
   <time name="dav">   57.80   57.84</time>
   <time name="total">   58.76   58.80</time>
   <energy>
    <i name="e_fr_energy">    -79.57639404 </i>
    <i name="e_wo_entrp">    -79.53009247 </i>
    <i name="e_0_energy">    -79.55324326 </i>
   </energy>
  </scstep>
  <scstep>
   <time name="dav">   58.25   58.28</time>
   <time name="total">   59.21   59.23</time>
   <energy>
    <i name="e_fr_energy">    -79.52710296 </i>
    <i name="e_wo_entrp">    -79.47712593 </i>
    <i name="e_0_energy">    -79.50211444 </i>
   </energy>
  </scstep>
  <scstep>
   <time name="dav">   50.02   50.04</time>
   <time name="total">   50.99   51.01</time>
   <energy>
    <i name="e_fr_energy">    -79.52173220 </i>
    <i name="e_wo_entrp">    -79.47205494 </i>
    <i name="e_0_energy">    -79.49689357 </i>
   </energy>
  </scstep>
  <scstep>
   <time name="dav">   45.12   45.14</time>
   <time name="total">   46.08   46.10</time>
   <energy>
    <i name="e_fr_energy">    -79.52338800 </i>
    <i name="e_wo_entrp">    -79.47375019 </i>
    <i name="e_0_energy">    -79.49856910 </i>
   </energy>
  </scstep>
  <scstep>
   <time name="dav">   44.10   44.13</time>
   <time name="total">   45.06   45.08</time>
   <energy>
    <i name="e_fr_energy">    -79.52344098 </i>
    <i name="e_wo_entrp">    -79.47377906 </i>
    <i name="e_0_energy">    -79.49861002 </i>
   </energy>
  </scstep>
  <scstep>
   <time name="dav">   46.87   46.90</time>
   <time name="total">   47.83   47.85</time>
   <energy>
    <i name="e_fr_energy">    -79.52333326 </i>
    <i name="e_wo_entrp">    -79.47375878 </i>
    <i name="e_0_energy">    -79.49854602 </i>
   </energy>
  </scstep>
  <scstep>
   <time name="dav">   47.08   47.10</time>
   <time name="total">   48.04   48.06</time>
   <energy>
    <i name="e_fr_energy">    -79.52335060 </i>
    <i name="e_wo_entrp">    -79.47370144 </i>
    <i name="e_0_energy">    -79.49852602 </i>
   </energy>
  </scstep>
  <scstep>
   <time name="dav">   50.83   50.85</time>
   <time name="total">   51.79   51.82</time>
   <energy>
    <i name="e_fr_energy">    -79.52337767 </i>
    <i name="e_wo_entrp">    -79.47375065 </i>
    <i name="e_0_energy">    -79.49856416 </i>
   </energy>
  </scstep>
  <scstep>
   <time name="dav">   47.78   47.80</time>
   <time name="total">   48.73   48.76</time>
   <energy>
    <i name="e_fr_energy">    -79.52337884 </i>
    <i name="e_wo_entrp">    -79.47374231 </i>
    <i name="e_0_energy">    -79.49856058 </i>
   </energy>
  </scstep>
  <scstep>
   <time name="dav">   44.92   44.94</time>
   <time name="total">   45.88   45.90</time>
   <energy>
    <i name="e_fr_energy">    -79.52338040 </i>
    <i name="e_wo_entrp">    -79.47374038 </i>
    <i name="e_0_energy">    -79.49856039 </i>
   </energy>
  </scstep>
  <scstep>
   <time name="dav">   36.01   36.03</time>
   <time name="total">   36.05   36.07</time>
   <energy>
    <i name="alphaZ">    841.29232037 </i>
    <i name="ewald"> 198699.82350990 </i>
    <i name="hartreedc">-231460.68701235 </i>
    <i name="XCdc">    774.03996735 </i>
    <i name="pawpsdc">  29947.45421888 </i>
    <i name="pawaedc"> -29639.38981341 </i>
    <i name="eentropy">     -0.04963909 </i>
    <i name="bandstr">  -2485.39678764 </i>
    <i name="atom">  33243.38985548 </i>
    <i name="e_fr_energy">    -79.52338050 </i>
    <i name="e_wo_entrp">    -79.47374142 </i>
    <i name="e_0_energy">    -79.49856096 </i>
   </energy>
  </scstep>
  <structure>
   <crystal>
    <varray name="basis" >
     <v>       2.46549997      -2.46549997       0.00000000 </v>
     <v>       0.00000000       2.46549997      -2.46549997 </v>
     <v>      42.77667205      42.77667205      42.77667205 </v>
    </varray>
    <i name="volume">    780.07840094 </i>
    <varray name="rec_basis" >
     <v>       0.27039816      -0.13519908      -0.13519908 </v>
     <v>       0.13519908       0.13519908      -0.27039816 </v>
     <v>       0.00779241       0.00779241       0.00779241 </v>
    </varray>
   </crystal>
   <varray name="positions" >
    <v>       0.66666695       0.33333389       0.00140248 </v>
    <v>       0.00000027       0.00000054       0.03682785 </v>
    <v>       0.33333362       0.66666722       0.07696250 </v>
    <v>       0.66666695       0.33333389       0.11523724 </v>
    <v>       0.00000027       0.00000054       0.15380108 </v>
    <v>       0.33333362       0.66666722       0.19214304 </v>
    <v>       0.66666695       0.33333389       0.23049743 </v>
    <v>       0.00000027       0.00000054       0.26907198 </v>
    <v>       0.33333362       0.66666722       0.30724639 </v>
    <v>       0.66666695       0.33333389       0.34596908 </v>
    <v>       0.00000027       0.00000054       0.38409394 </v>
    <v>       0.33333362       0.66666722       0.42281663 </v>
    <v>       0.66666695       0.33333389       0.46099104 </v>
    <v>       0.00000027       0.00000054       0.49956560 </v>
    <v>       0.33333362       0.66666722       0.53791999 </v>
    <v>       0.66666695       0.33333389       0.57626195 </v>
    <v>       0.00000027       0.00000054       0.61482579 </v>
    <v>       0.33333362       0.66666722       0.65310052 </v>
    <v>       0.66666695       0.33333389       0.69323517 </v>
    <v>       0.00000027       0.00000054       0.72866054 </v>
   </varray>
  </structure>
  <varray name="forces" >
   <v>      -0.10965734      -0.10965734      -0.10965734 </v>
   <v>       0.15568779       0.15568779       0.15568779 </v>
   <v>      -0.05043799      -0.05043799      -0.05043799 </v>
   <v>       0.00804869       0.00804869       0.00804869 </v>
   <v>      -0.01194605      -0.01194605      -0.01194605 </v>
   <v>       0.00724189       0.00724189       0.00724189 </v>
   <v>       0.00511657       0.00511657       0.00511657 </v>
   <v>      -0.01150090      -0.01150090      -0.01150090 </v>
   <v>       0.01445827       0.01445827       0.01445827 </v>
   <v>      -0.01669607      -0.01669607      -0.01669607 </v>
   <v>       0.01669607       0.01669607       0.01669607 </v>
   <v>      -0.01445827      -0.01445827      -0.01445827 </v>
   <v>       0.01150090       0.01150090       0.01150090 </v>
   <v>      -0.00511657      -0.00511657      -0.00511657 </v>
   <v>      -0.00724189      -0.00724189      -0.00724189 </v>
   <v>       0.01194605       0.01194605       0.01194605 </v>
   <v>      -0.00804869      -0.00804869      -0.00804869 </v>
   <v>       0.05043799       0.05043799       0.05043799 </v>
   <v>      -0.15568779      -0.15568779      -0.15568779 </v>
   <v>       0.10965734       0.10965734       0.10965734 </v>
  </varray>
  <varray name="stress" >
   <v>      -0.27864503       0.74917639       0.74917639 </v>
   <v>       0.74917639      -0.27864503       0.74917639 </v>
   <v>       0.74917639       0.74917639      -0.27864503 </v>
  </varray>
  <energy>
   <i name="e_fr_energy">    -79.52338050 </i>
   <i name="e_wo_entrp">    -79.49856096 </i>
   <i name="e_0_energy">     -0.04963909 </i>
  </energy>
  <time name="totalsc">  744.07  744.42</time>
 </calculation>
 <calculation>
  <scstep>
   <time name="dav">   40.81   40.84</time>
   <time name="total">   41.77   41.79</time>
   <energy>
    <i name="alphaZ">    841.29232037 </i>
    <i name="ewald"> 198634.59963197 </i>
    <i name="hartreedc">-231396.85974537 </i>
    <i name="XCdc">    773.91157756 </i>
    <i name="pawpsdc">  29947.49974071 </i>
    <i name="pawaedc"> -29639.43546683 </i>
    <i name="eentropy">     -0.04877257 </i>
    <i name="bandstr">  -2483.58574265 </i>
    <i name="atom">  33243.38985548 </i>
    <i name="e_fr_energy">    -79.23660134 </i>
    <i name="e_wo_entrp">    -79.18782876 </i>
    <i name="e_0_energy">    -79.21221505 </i>
   </energy>
  </scstep>
  <scstep>
   <time name="dav">   52.59   52.62</time>
   <time name="total">   53.55   53.58</time>
   <energy>
    <i name="e_fr_energy">    -79.64149256 </i>
    <i name="e_wo_entrp">    -79.59319782 </i>
    <i name="e_0_energy">    -79.61734519 </i>
   </energy>
  </scstep>
  <scstep>
   <time name="dav">   54.61   54.64</time>
   <time name="total">   55.57   55.59</time>
   <energy>
    <i name="e_fr_energy">    -81.08838147 </i>
    <i name="e_wo_entrp">    -81.03428765 </i>
    <i name="e_0_energy">    -81.06133456 </i>
   </energy>
  </scstep>
  <scstep>
   <time name="dav">   55.91   55.94</time>
   <time name="total">   56.87   56.90</time>
   <energy>
    <i name="e_fr_energy">    -79.60342866 </i>
    <i name="e_wo_entrp">    -79.55546457 </i>
    <i name="e_0_energy">    -79.57944662 </i>
   </energy>
  </scstep>
  <scstep>
   <time name="dav">   56.73   56.76</time>
   <time name="total">   57.69   57.72</time>
   <energy>
    <i name="e_fr_energy">    -79.54324757 </i>
    <i name="e_wo_entrp">    -79.49471853 </i>
    <i name="e_0_energy">    -79.51898305 </i>
   </energy>
  </scstep>
  <scstep>
   <time name="dav">   49.35   49.39</time>
   <time name="total">   50.31   50.34</time>
   <energy>
    <i name="e_fr_energy">    -79.54645067 </i>
    <i name="e_wo_entrp">    -79.49778023 </i>
    <i name="e_0_energy">    -79.52211545 </i>
   </energy>
  </scstep>
  <scstep>
   <time name="dav">   47.31   47.34</time>
   <time name="total">   48.27   48.31</time>
   <energy>
    <i name="e_fr_energy">    -79.54621355 </i>
    <i name="e_wo_entrp">    -79.49741123 </i>
    <i name="e_0_energy">    -79.52181239 </i>
   </energy>
  </scstep>
  <scstep>
   <time name="dav">   44.81   44.84</time>
   <time name="total">   45.77   45.80</time>
   <energy>
    <i name="e_fr_energy">    -79.54635584 </i>
    <i name="e_wo_entrp">    -79.49760769 </i>
    <i name="e_0_energy">    -79.52198177 </i>
   </energy>
  </scstep>
  <scstep>
   <time name="dav">   46.28   46.30</time>
   <time name="total">   47.25   47.28</time>
   <energy>
    <i name="e_fr_energy">    -79.54638407 </i>
    <i name="e_wo_entrp">    -79.49760944 </i>
    <i name="e_0_energy">    -79.52199675 </i>
   </energy>
  </scstep>
  <scstep>
   <time name="dav">   49.43   49.46</time>
   <time name="total">   50.40   50.43</time>
   <energy>
    <i name="e_fr_energy">    -79.54636794 </i>
    <i name="e_wo_entrp">    -79.49759007 </i>
    <i name="e_0_energy">    -79.52197900 </i>
   </energy>
  </scstep>
  <scstep>
   <time name="dav">   51.18   51.21</time>
   <time name="total">   52.14   52.17</time>
   <energy>
    <i name="e_fr_energy">    -79.54638306 </i>
    <i name="e_wo_entrp">    -79.49760848 </i>
    <i name="e_0_energy">    -79.52199577 </i>
   </energy>
  </scstep>
  <scstep>
   <time name="dav">   52.46   52.49</time>
   <time name="total">   53.42   53.45</time>
   <energy>
    <i name="e_fr_energy">    -79.54638783 </i>
    <i name="e_wo_entrp">    -79.49761698 </i>
    <i name="e_0_energy">    -79.52200241 </i>
   </energy>
  </scstep>
  <scstep>
   <time name="dav">   41.45   41.49</time>
   <time name="total">   41.49   41.53</time>
   <energy>
    <i name="alphaZ">    841.29232037 </i>
    <i name="ewald"> 198634.59963197 </i>
    <i name="hartreedc">-231398.14601387 </i>
    <i name="XCdc">    773.90161987 </i>
    <i name="pawpsdc">  29927.98762865 </i>
    <i name="pawaedc"> -29619.55308484 </i>
    <i name="eentropy">     -0.04877502 </i>
    <i name="bandstr">  -2482.96957043 </i>
    <i name="atom">  33243.38985548 </i>
    <i name="e_fr_energy">    -79.54638783 </i>
    <i name="e_wo_entrp">    -79.49761280 </i>
    <i name="e_0_energy">    -79.52200032 </i>
   </energy>
  </scstep>
  <structure>
   <crystal>
    <varray name="basis" >
     <v>       2.46549997      -2.46549997       0.00000000 </v>
     <v>       0.00000000       2.46549997      -2.46549997 </v>
     <v>      42.77667205      42.77667205      42.77667205 </v>
    </varray>
    <i name="volume">    780.07840094 </i>
    <varray name="rec_basis" >
     <v>       0.27039816      -0.13519908      -0.13519908 </v>
     <v>       0.13519908       0.13519908      -0.27039816 </v>
     <v>       0.00779241       0.00779241       0.00779241 </v>
    </varray>
   </crystal>
   <varray name="positions" >
    <v>       0.66666695       0.33333389       0.00075802 </v>
    <v>       0.00000027       0.00000054       0.03756148 </v>
    <v>       0.33333362       0.66666722       0.07691023 </v>
    <v>       0.66666695       0.33333389       0.11525372 </v>
    <v>       0.00000027       0.00000054       0.15375347 </v>
    <v>       0.33333362       0.66666722       0.19213330 </v>
    <v>       0.66666695       0.33333389       0.23051985 </v>
    <v>       0.00000027       0.00000054       0.26902539 </v>
    <v>       0.33333362       0.66666722       0.30731466 </v>
    <v>       0.66666695       0.33333389       0.34590027 </v>
    <v>       0.00000027       0.00000054       0.38416276 </v>
    <v>       0.33333362       0.66666722       0.42274836 </v>
    <v>       0.66666695       0.33333389       0.46103764 </v>
    <v>       0.00000027       0.00000054       0.49954318 </v>
    <v>       0.33333362       0.66666722       0.53792972 </v>
    <v>       0.66666695       0.33333389       0.57630955 </v>
    <v>       0.00000027       0.00000054       0.61480931 </v>
    <v>       0.33333362       0.66666722       0.65315280 </v>
    <v>       0.66666695       0.33333389       0.69250155 </v>
    <v>       0.00000027       0.00000054       0.72930501 </v>
   </varray>
  </structure>
  <varray name="forces" >
   <v>       0.01613970       0.01613970       0.01613970 </v>
   <v>       0.00410172       0.00410172       0.00410172 </v>
   <v>      -0.02621272      -0.02621272      -0.02621272 </v>
   <v>       0.00248941       0.00248941       0.00248941 </v>
   <v>      -0.00213442      -0.00213442      -0.00213442 </v>
   <v>       0.00459303       0.00459303       0.00459303 </v>
   <v>       0.00080904       0.00080904       0.00080904 </v>
   <v>      -0.00111027      -0.00111027      -0.00111027 </v>
   <v>       0.00074379       0.00074379       0.00074379 </v>
   <v>      -0.00192820      -0.00192820      -0.00192820 </v>
   <v>       0.00192820       0.00192820       0.00192820 </v>
   <v>      -0.00074379      -0.00074379      -0.00074379 </v>
   <v>       0.00111027       0.00111027       0.00111027 </v>
   <v>      -0.00080904      -0.00080904      -0.00080904 </v>
   <v>      -0.00459303      -0.00459303      -0.00459303 </v>
   <v>       0.00213442       0.00213442       0.00213442 </v>
   <v>      -0.00248941      -0.00248941      -0.00248941 </v>
   <v>       0.02621272       0.02621272       0.02621272 </v>
   <v>      -0.00410172      -0.00410172      -0.00410172 </v>
   <v>      -0.01613970      -0.01613970      -0.01613970 </v>
  </varray>
  <varray name="stress" >
   <v>      -1.49761830       0.37149280       0.37149280 </v>
   <v>       0.37149280      -1.49761830       0.37149280 </v>
   <v>       0.37149280       0.37149280      -1.49761830 </v>
  </varray>
  <energy>
   <i name="e_fr_energy">    -79.54638783 </i>
   <i name="e_wo_entrp">    -79.52200032 </i>
   <i name="e_0_energy">     -0.04877502 </i>
  </energy>
  <time name="totalsc">  713.93  714.37</time>
 </calculation>
 <calculation>
  <scstep>
   <time name="dav">   42.61   42.64</time>
   <time name="total">   43.58   43.60</time>
   <energy>
    <i name="alphaZ">    841.29232037 </i>
    <i name="ewald"> 198638.78308835 </i>
    <i name="hartreedc">-231402.30528548 </i>
    <i name="XCdc">    773.90544651 </i>
    <i name="pawpsdc">  29927.88550321 </i>
    <i name="pawaedc"> -29619.45078432 </i>
    <i name="eentropy">     -0.04874788 </i>
    <i name="bandstr">  -2482.99769514 </i>
    <i name="atom">  33243.38985548 </i>
    <i name="e_fr_energy">    -79.54629891 </i>
    <i name="e_wo_entrp">    -79.49755103 </i>
    <i name="e_0_energy">    -79.52192497 </i>
   </energy>
  </scstep>
  <scstep>
   <time name="dav">   50.03   50.07</time>
   <time name="total">   51.00   51.04</time>
   <energy>
    <i name="e_fr_energy">    -79.54686433 </i>
    <i name="e_wo_entrp">    -79.49811332 </i>
    <i name="e_0_energy">    -79.52248883 </i>
   </energy>
  </scstep>
  <scstep>
   <time name="dav">   54.60   54.64</time>
   <time name="total">   55.57   55.60</time>
   <energy>
    <i name="e_fr_energy">    -79.54689091 </i>
    <i name="e_wo_entrp">    -79.49816876 </i>
    <i name="e_0_energy">    -79.52252983 </i>
   </energy>
  </scstep>
  <scstep>
   <time name="dav">   52.73   52.76</time>
   <time name="total">   53.70   53.72</time>
   <energy>
    <i name="e_fr_energy">    -79.54691647 </i>
    <i name="e_wo_entrp">    -79.49815812 </i>
    <i name="e_0_energy">    -79.52253729 </i>
   </energy>
  </scstep>
  <scstep>
   <time name="dav">   49.35   49.38</time>
   <time name="total">   50.31   50.34</time>
   <energy>
    <i name="e_fr_energy">    -79.54688670 </i>
    <i name="e_wo_entrp">    -79.49813228 </i>
    <i name="e_0_energy">    -79.52250949 </i>
   </energy>
  </scstep>
  <scstep>
   <time name="dav">   37.26   37.29</time>
   <time name="total">   38.22   38.25</time>
   <energy>
    <i name="e_fr_energy">    -79.54687141 </i>
    <i name="e_wo_entrp">    -79.49812364 </i>
    <i name="e_0_energy">    -79.52249753 </i>
   </energy>
  </scstep>
  <scstep>
   <time name="dav">   48.75   48.79</time>
   <time name="total">   49.72   49.75</time>
   <energy>
    <i name="e_fr_energy">    -79.54687319 </i>
    <i name="e_wo_entrp">    -79.49813031 </i>
    <i name="e_0_energy">    -79.52250175 </i>
   </energy>
  </scstep>
  <scstep>
   <time name="dav">   42.86   42.89</time>
   <time name="total">   42.90   42.93</time>
   <energy>
    <i name="alphaZ">    841.29232037 </i>
    <i name="ewald"> 198638.78308835 </i>
    <i name="hartreedc">-231402.43382322 </i>
    <i name="XCdc">    773.90593401 </i>
    <i name="pawpsdc">  29928.12087654 </i>
    <i name="pawaedc"> -29619.69361369 </i>
    <i name="eentropy">     -0.04874567 </i>
    <i name="bandstr">  -2482.86276598 </i>
    <i name="atom">  33243.38985548 </i>
    <i name="e_fr_energy">    -79.54687381 </i>
    <i name="e_wo_entrp">    -79.49812814 </i>
    <i name="e_0_energy">    -79.52250097 </i>
   </energy>
  </scstep>
  <structure>
   <crystal>
    <varray name="basis" >
     <v>       2.46549997      -2.46549997       0.00000000 </v>
     <v>       0.00000000       2.46549997      -2.46549997 </v>
     <v>      42.77667205      42.77667205      42.77667205 </v>
    </varray>
    <i name="volume">    780.07840094 </i>
    <varray name="rec_basis" >
     <v>       0.27039816      -0.13519908      -0.13519908 </v>
     <v>       0.13519908       0.13519908      -0.27039816 </v>
     <v>       0.00779241       0.00779241       0.00779241 </v>
    </varray>
   </crystal>
   <varray name="positions" >
    <v>       0.66666695       0.33333389       0.00079158 </v>
    <v>       0.00000027       0.00000054       0.03757095 </v>
    <v>       0.33333362       0.66666722       0.07685457 </v>
    <v>       0.66666695       0.33333389       0.11525902 </v>
    <v>       0.00000027       0.00000054       0.15374890 </v>
    <v>       0.33333362       0.66666722       0.19214303 </v>
    <v>       0.66666695       0.33333389       0.23052159 </v>
    <v>       0.00000027       0.00000054       0.26902299 </v>
    <v>       0.33333362       0.66666722       0.30731631 </v>
    <v>       0.66666695       0.33333389       0.34589611 </v>
    <v>       0.00000027       0.00000054       0.38416692 </v>
    <v>       0.33333362       0.66666722       0.42274672 </v>
    <v>       0.66666695       0.33333389       0.46104004 </v>
    <v>       0.00000027       0.00000054       0.49954144 </v>
    <v>       0.33333362       0.66666722       0.53791999 </v>
    <v>       0.66666695       0.33333389       0.57631413 </v>
    <v>       0.00000027       0.00000054       0.61480401 </v>
    <v>       0.33333362       0.66666722       0.65320846 </v>
    <v>       0.66666695       0.33333389       0.69249208 </v>
    <v>       0.00000027       0.00000054       0.72927144 </v>
   </varray>
  </structure>
  <varray name="forces" >
   <v>       0.01268715       0.01268715       0.01268715 </v>
   <v>       0.00384311       0.00384311       0.00384311 </v>
   <v>      -0.01902081      -0.01902081      -0.01902081 </v>
   <v>      -0.00043504      -0.00043504      -0.00043504 </v>
   <v>      -0.00133762      -0.00133762      -0.00133762 </v>
   <v>       0.00226697       0.00226697       0.00226697 </v>
   <v>       0.00080841       0.00080841       0.00080841 </v>
   <v>      -0.00078240      -0.00078240      -0.00078240 </v>
   <v>       0.00080783       0.00080783       0.00080783 </v>
   <v>      -0.00100368      -0.00100368      -0.00100368 </v>
   <v>       0.00100368       0.00100368       0.00100368 </v>
   <v>      -0.00080783      -0.00080783      -0.00080783 </v>
   <v>       0.00078240       0.00078240       0.00078240 </v>
   <v>      -0.00080841      -0.00080841      -0.00080841 </v>
   <v>      -0.00226697      -0.00226697      -0.00226697 </v>
   <v>       0.00133762       0.00133762       0.00133762 </v>
   <v>       0.00043504       0.00043504       0.00043504 </v>
   <v>       0.01902081       0.01902081       0.01902081 </v>
   <v>      -0.00384311      -0.00384311      -0.00384311 </v>
   <v>      -0.01268715      -0.01268715      -0.01268715 </v>
  </varray>
  <varray name="stress" >
   <v>      -1.42729786       0.37523760       0.37523760 </v>
   <v>       0.37523760      -1.42729786       0.37523760 </v>
   <v>       0.37523760       0.37523760      -1.42729786 </v>
  </varray>
  <energy>
   <i name="e_fr_energy">    -79.54687381 </i>
   <i name="e_wo_entrp">    -79.52250097 </i>
   <i name="e_0_energy">     -0.04874567 </i>
  </energy>
  <time name="totalsc">  444.34  444.62</time>
 </calculation>
 <calculation>
  <scstep>
   <time name="dav">   42.06   42.10</time>
   <time name="total">   43.03   43.06</time>
   <energy>
    <i name="alphaZ">    841.29232037 </i>
    <i name="ewald"> 198643.85962159 </i>
    <i name="hartreedc">-231407.47634341 </i>
    <i name="XCdc">    773.91099003 </i>
    <i name="pawpsdc">  29928.13234883 </i>
    <i name="pawaedc"> -29619.70514154 </i>
    <i name="eentropy">     -0.04871770 </i>
    <i name="bandstr">  -2482.90140592 </i>
    <i name="atom">  33243.38985548 </i>
    <i name="e_fr_energy">    -79.54647228 </i>
    <i name="e_wo_entrp">    -79.49775457 </i>
    <i name="e_0_energy">    -79.52211343 </i>
   </energy>
  </scstep>
  <scstep>
   <time name="dav">   50.25   50.30</time>
   <time name="total">   51.23   51.27</time>
   <energy>
    <i name="e_fr_energy">    -79.54729711 </i>
    <i name="e_wo_entrp">    -79.49857476 </i>
    <i name="e_0_energy">    -79.52293593 </i>
   </energy>
  </scstep>
  <scstep>
   <time name="dav">   55.92   55.96</time>
   <time name="total">   56.88   56.92</time>
   <energy>
    <i name="e_fr_energy">    -79.54741565 </i>
    <i name="e_wo_entrp">    -79.49875190 </i>
    <i name="e_0_energy">    -79.52308377 </i>
   </energy>
  </scstep>
  <scstep>
   <time name="dav">   53.40   53.44</time>
   <time name="total">   54.37   54.41</time>
   <energy>
    <i name="e_fr_energy">    -79.54734010 </i>
    <i name="e_wo_entrp">    -79.49862596 </i>
    <i name="e_0_energy">    -79.52298303 </i>
   </energy>
  </scstep>
  <scstep>
   <time name="dav">   53.24   53.26</time>
   <time name="total">   54.21   54.24</time>
   <energy>
    <i name="e_fr_energy">    -79.54731682 </i>
    <i name="e_wo_entrp">    -79.49859615 </i>
    <i name="e_0_energy">    -79.52295649 </i>
   </energy>
  </scstep>
  <scstep>
   <time name="dav">   51.77   51.81</time>
   <time name="total">   52.74   52.77</time>
   <energy>
    <i name="e_fr_energy">    -79.54730580 </i>
    <i name="e_wo_entrp">    -79.49858946 </i>
    <i name="e_0_energy">    -79.52294763 </i>
   </energy>
  </scstep>
  <scstep>
   <time name="dav">   46.57   46.61</time>
   <time name="total">   47.54   47.58</time>
   <energy>
    <i name="e_fr_energy">    -79.54730842 </i>
    <i name="e_wo_entrp">    -79.49859751 </i>
    <i name="e_0_energy">    -79.52295297 </i>
   </energy>
  </scstep>
  <scstep>
   <time name="dav">   42.73   42.75</time>
   <time name="total">   43.70   43.72</time>
   <energy>
[...]
       <r>  -12.0495    1.0000 </r>
       <r>  -12.0494    1.0000 </r>
       <r>  -12.0469    1.0000 </r>
       <r>  -12.0443    1.0000 </r>
       <r>  -12.0407    1.0000 </r>
       <r>  -12.0253    1.0000 </r>
       <r>  -12.0251    1.0000 </r>
       <r>   -2.7004    1.0000 </r>
       <r>   -2.6878    1.0000 </r>
       <r>   -2.6710    1.0000 </r>
       <r>   -2.6521    1.0000 </r>
       <r>   -2.6292    1.0000 </r>
       <r>   -2.6023    1.0000 </r>
       <r>   -2.5734    1.0000 </r>
       <r>   -2.5446    1.0000 </r>
       <r>   -2.5184    1.0000 </r>
       <r>   -2.4954    1.0000 </r>
       <r>   -2.4764    1.0000 </r>
       <r>   -2.4527    1.0000 </r>
       <r>   -2.4323    1.0000 </r>
       <r>   -2.4127    1.0000 </r>
       <r>   -2.3947    1.0000 </r>
       <r>   -2.3794    1.0000 </r>
       <r>   -2.3679    1.0000 </r>
       <r>   -2.3608    1.0000 </r>
       <r>   -2.3214    1.0000 </r>
       <r>   -2.3212    1.0000 </r>
       <r>    1.9100    1.0000 </r>
       <r>    1.9117    1.0000 </r>
       <r>    1.9687    1.0000 </r>
       <r>    1.9797    1.0000 </r>
       <r>    2.0601    1.0000 </r>
       <r>    2.0810    1.0000 </r>
       <r>    2.1790    1.0000 </r>
       <r>    2.2109    1.0000 </r>
       <r>    2.2550    1.0000 </r>
       <r>    2.3180    1.0000 </r>
       <r>    2.3468    1.0000 </r>
       <r>    2.3613    1.0000 </r>
       <r>    2.4327    1.0000 </r>
       <r>    2.5168    1.0000 </r>
       <r>    2.5378    1.0000 </r>
       <r>    2.5932    1.0000 </r>
       <r>    2.6906    1.0000 </r>
       <r>    2.7527    1.0000 </r>
       <r>    2.7577    1.0000 </r>
       <r>    2.9681    1.0000 </r>
       <r>    3.0190    1.0000 </r>
       <r>    3.1890    1.0000 </r>
       <r>    3.2428    1.0000 </r>
       <r>    3.4284    1.0000 </r>
       <r>    3.4803    1.0000 </r>
       <r>    3.4888    1.0000 </r>
       <r>    3.6960    1.0000 </r>
       <r>    3.7556    1.0000 </r>
       <r>    3.7641    1.0000 </r>
       <r>    3.9840    1.0000 </r>
       <r>    4.0131    1.0000 </r>
       <r>    4.0618    1.0000 </r>
       <r>    4.2169    1.0000 </r>
       <r>    4.2689    1.0000 </r>
       <r>    4.3494    1.0000 </r>
       <r>    4.5104    0.9955 </r>
       <r>    4.6167    0.8658 </r>
       <r>    4.7116    0.4069 </r>
       <r>    4.8043    0.0610 </r>
       <r>    4.8368    0.0224 </r>
       <r>    6.3663    0.0000 </r>
       <r>    6.5625    0.0000 </r>
       <r>    6.8242    0.0000 </r>
       <r>    6.9434    0.0000 </r>
       <r>    6.9737    0.0000 </r>
       <r>    7.0971    0.0000 </r>
       <r>    7.1389    0.0000 </r>
       <r>    7.2417    0.0000 </r>
       <r>    7.3919    0.0000 </r>
       <r>    7.4232    0.0000 </r>
      </set>
     </set>
    </set>
   </array>
  </eigenvalues>
  <separator name="orbital magnetization" >
   <v name="MAGDIPOLOUT">      0.00000000      0.00000000      0.00000000</v>
  </separator>
  <dos>
   <i name="efermi">      4.69496056 </i>
   <total>
    <array>
     <dimension dim="1">gridpoints</dimension>
     <dimension dim="2">spin</dimension>
     <field>energy</field>
     <field>total</field>
     <field>integrated</field>
     <set>
      <set comment="spin 1">
       <r>   -13.7095     0.0000     0.0000 </r>
       <r>   -13.6211     0.0000     0.0000 </r>
       <r>   -13.5326     0.0000     0.0000 </r>
       <r>   -13.4442     0.0000     0.0000 </r>
       <r>   -13.3557     0.0000     0.0000 </r>
       <r>   -13.2673     0.0000     0.0000 </r>
       <r>   -13.1788     0.0000     0.0000 </r>
       <r>   -13.0904     0.0000     0.0000 </r>
       <r>   -13.0019     0.0000     0.0000 </r>
       <r>   -12.9135     0.0000     0.0000 </r>
       <r>   -12.8250     0.0000     0.0000 </r>
       <r>   -12.7366     0.0037     0.0003 </r>
       <r>   -12.6481     0.2711     0.0243 </r>
       <r>   -12.5596     6.1574     0.5690 </r>
       <r>   -12.4712    54.3493     5.3763 </r>
       <r>   -12.3827   222.3267    25.0420 </r>
       <r>   -12.2943   436.3096    63.6351 </r>
       <r>   -12.2058   476.3665   105.7715 </r>
       <r>   -12.1174   458.9016   146.3630 </r>
       <r>   -12.0289   394.3727   181.2467 </r>
       <r>   -11.9405   179.7986   197.1505 </r>
       <r>   -11.8520    30.5835   199.8557 </r>
       <r>   -11.7636     1.6079   199.9979 </r>
       <r>   -11.6751     0.0233   200.0000 </r>
       <r>   -11.5867     0.0001   200.0000 </r>
       <r>   -11.4982     0.0000   200.0000 </r>
       <r>   -11.4097     0.0000   200.0000 </r>
       <r>   -11.3213     0.0000   200.0000 </r>
       <r>   -11.2328     0.0000   200.0000 </r>
       <r>   -11.1444     0.0000   200.0000 </r>
       <r>   -11.0559     0.0000   200.0000 </r>
       <r>   -10.9675     0.0000   200.0000 </r>
       <r>   -10.8790     0.0000   200.0000 </r>
       <r>   -10.7906     0.0000   200.0000 </r>
       <r>   -10.7021     0.0000   200.0000 </r>
       <r>   -10.6137     0.0000   200.0000 </r>
       <r>   -10.5252     0.0000   200.0000 </r>
       <r>   -10.4368     0.0000   200.0000 </r>
       <r>   -10.3483     0.0000   200.0000 </r>
       <r>   -10.2599     0.0000   200.0000 </r>
       <r>   -10.1714     0.0000   200.0000 </r>
       <r>   -10.0829     0.0000   200.0000 </r>
       <r>    -9.9945     0.0000   200.0000 </r>
       <r>    -9.9060     0.0000   200.0000 </r>
       <r>    -9.8176     0.0000   200.0000 </r>
       <r>    -9.7291     0.0000   200.0000 </r>
       <r>    -9.6407     0.0000   200.0000 </r>
       <r>    -9.5522     0.0000   200.0000 </r>
       <r>    -9.4638     0.0000   200.0000 </r>
       <r>    -9.3753     0.0000   200.0000 </r>
       <r>    -9.2869     0.0000   200.0000 </r>
       <r>    -9.1984     0.0000   200.0000 </r>
       <r>    -9.1100     0.0000   200.0000 </r>
       <r>    -9.0215     0.0000   200.0000 </r>
       <r>    -8.9330     0.0000   200.0000 </r>
       <r>    -8.8446     0.0000   200.0000 </r>
       <r>    -8.7561     0.0000   200.0000 </r>
       <r>    -8.6677     0.0000   200.0000 </r>
       <r>    -8.5792     0.0000   200.0000 </r>
       <r>    -8.4908     0.0000   200.0000 </r>
       <r>    -8.4023     0.0000   200.0000 </r>
       <r>    -8.3139     0.0000   200.0000 </r>
       <r>    -8.2254     0.0000   200.0000 </r>
       <r>    -8.1370     0.0000   200.0000 </r>
       <r>    -8.0485     0.0000   200.0000 </r>
       <r>    -7.9601     0.0000   200.0000 </r>
       <r>    -7.8716     0.0000   200.0000 </r>
       <r>    -7.7831     0.0000   200.0000 </r>
       <r>    -7.6947     0.0000   200.0000 </r>
       <r>    -7.6062     0.0000   200.0000 </r>
       <r>    -7.5178     0.0000   200.0000 </r>
       <r>    -7.4293     0.0000   200.0000 </r>
       <r>    -7.3409     0.0012   200.0001 </r>
       <r>    -7.2524     0.0288   200.0027 </r>
       <r>    -7.1640     0.2276   200.0228 </r>
       <r>    -7.0755     0.7315   200.0875 </r>
       <r>    -6.9871     1.3135   200.2037 </r>
       <r>    -6.8986     1.7650   200.3598 </r>
       <r>    -6.8102     2.1203   200.5474 </r>
       <r>    -6.7217     2.4039   200.7600 </r>
       <r>    -6.6333     2.6485   200.9943 </r>
       <r>    -6.5448     2.9290   201.2533 </r>
       <r>    -6.4563     3.0503   201.5232 </r>
       <r>    -6.3679     3.3346   201.8181 </r>
       <r>    -6.2794     3.5629   202.1333 </r>
       <r>    -6.1910     3.5919   202.4510 </r>
       <r>    -6.1025     3.8690   202.7932 </r>
       <r>    -6.0141     4.1143   203.1571 </r>
       <r>    -5.9256     4.1340   203.5228 </r>
       <r>    -5.8372     4.2206   203.8961 </r>
       <r>    -5.7487     4.6779   204.3099 </r>
       <r>    -5.6603     4.7974   204.7343 </r>
       <r>    -5.5718     4.5839   205.1397 </r>
       <r>    -5.4834     4.9280   205.5756 </r>
       <r>    -5.3949     5.2945   206.0439 </r>
       <r>    -5.3064     5.3808   206.5199 </r>
       <r>    -5.2180     5.3578   206.9938 </r>
       <r>    -5.1295     5.3893   207.4705 </r>
       <r>    -5.0411     5.9334   207.9953 </r>
       <r>    -4.9526     6.1978   208.5436 </r>
       <r>    -4.8642     6.0574   209.0794 </r>
       <r>    -4.7757     6.0754   209.6167 </r>
       <r>    -4.6873     6.4781   210.1898 </r>
       <r>    -4.5988     6.8504   210.7957 </r>
       <r>    -4.5104     7.1778   211.4306 </r>
       <r>    -4.4219     7.0326   212.0527 </r>
       <r>    -4.3335     6.9065   212.6636 </r>
       <r>    -4.2450     7.7504   213.3491 </r>
       <r>    -4.1566     8.2901   214.0824 </r>
       <r>    -4.0681     8.1339   214.8019 </r>
       <r>    -3.9796     8.3657   215.5419 </r>
       <r>    -3.8912     8.7917   216.3195 </r>
       <r>    -3.8027     9.1850   217.1320 </r>
       <r>    -3.7143    10.2869   218.0419 </r>
       <r>    -3.6258    10.7879   218.9961 </r>
       <r>    -3.5374    11.0490   219.9734 </r>
       <r>    -3.4489    12.3749   221.0680 </r>
       <r>    -3.3605    13.5443   222.2661 </r>
       <r>    -3.2720    13.5826   223.4675 </r>
       <r>    -3.1836    12.8427   224.6035 </r>
       <r>    -3.0951    12.2456   225.6866 </r>
       <r>    -3.0067    12.8129   226.8200 </r>
       <r>    -2.9182    12.7607   227.9487 </r>
       <r>    -2.8297    11.9068   229.0019 </r>
       <r>    -2.7413    11.9743   230.0611 </r>
       <r>    -2.6528    12.2577   231.1453 </r>
       <r>    -2.5644    12.0508   232.2113 </r>
       <r>    -2.4759    11.9206   233.2657 </r>
       <r>    -2.3875    12.2686   234.3509 </r>
       <r>    -2.2990    12.7104   235.4752 </r>
       <r>    -2.2106    13.3995   236.6604 </r>
       <r>    -2.1221    14.3627   237.9308 </r>
       <r>    -2.0337    13.4182   239.1177 </r>
       <r>    -1.9452     7.7704   239.8050 </r>
       <r>    -1.8568     2.0072   239.9826 </r>
       <r>    -1.7683     0.1911   239.9995 </r>
       <r>    -1.6798     0.0057   240.0000 </r>
       <r>    -1.5914     0.0000   240.0000 </r>
       <r>    -1.5029     0.0000   240.0000 </r>
       <r>    -1.4145     0.0000   240.0000 </r>
       <r>    -1.3260     0.0000   240.0000 </r>
       <r>    -1.2376     0.0000   240.0000 </r>
       <r>    -1.1491     0.0000   240.0000 </r>
       <r>    -1.0607     0.0000   240.0000 </r>
       <r>    -0.9722     0.0000   240.0000 </r>
       <r>    -0.8838     0.0000   240.0000 </r>
       <r>    -0.7953     0.0000   240.0000 </r>
       <r>    -0.7069     0.0000   240.0000 </r>
       <r>    -0.6184     0.0000   240.0000 </r>
       <r>    -0.5300     0.0000   240.0000 </r>
       <r>    -0.4415     0.0000   240.0000 </r>
       <r>    -0.3530     0.0000   240.0000 </r>
       <r>    -0.2646     0.0000   240.0000 </r>
       <r>    -0.1761     0.0000   240.0000 </r>
       <r>    -0.0877     0.0000   240.0000 </r>
       <r>     0.0008     0.0000   240.0000 </r>
       <r>     0.0892     0.0000   240.0000 </r>
       <r>     0.1777     0.0001   240.0000 </r>
       <r>     0.2661     0.0046   240.0004 </r>
       <r>     0.3546     0.0773   240.0072 </r>
       <r>     0.4430     0.4324   240.0455 </r>
       <r>     0.5315     1.1203   240.1446 </r>
       <r>     0.6199     1.7755   240.3016 </r>
       <r>     0.7084     2.2853   240.5038 </r>
       <r>     0.7969     2.8807   240.7586 </r>
       <r>     0.8853     3.3367   241.0537 </r>
       <r>     0.9738     3.5079   241.3640 </r>
       <r>     1.0622     4.0464   241.7219 </r>
       <r>     1.1507     4.6815   242.1360 </r>
       <r>     1.2391     4.8892   242.5685 </r>
       <r>     1.3276     5.1735   243.0261 </r>
       <r>     1.4160     5.8022   243.5393 </r>
       <r>     1.5045     6.9762   244.1564 </r>
       <r>     1.5929     8.0309   244.8668 </r>
       <r>     1.6814     8.6060   245.6280 </r>
       <r>     1.7698     8.9232   246.4173 </r>
       <r>     1.8583     9.9003   247.2930 </r>
       <r>     1.9467    11.7330   248.3308 </r>
       <r>     2.0352    12.4424   249.4314 </r>
       <r>     2.1237    13.5329   250.6284 </r>
       <r>     2.2121    15.2012   251.9730 </r>
       <r>     2.3006    16.5895   253.4404 </r>
       <r>     2.3890    16.7036   254.9179 </r>
       <r>     2.4775    15.9561   256.3293 </r>
       <r>     2.5659    15.4393   257.6950 </r>
       <r>     2.6544    15.7181   259.0853 </r>
       <r>     2.7428    14.8589   260.3996 </r>
       <r>     2.8313    13.6504   261.6070 </r>
       <r>     2.9197    12.2534   262.6909 </r>
       <r>     3.0082    10.8635   263.6518 </r>
       <r>     3.0966     9.4851   264.4908 </r>
       <r>     3.1851     9.2690   265.3107 </r>
       <r>     3.2736     9.3138   266.1345 </r>
       <r>     3.3620     8.8450   266.9169 </r>
       <r>     3.4505     8.7381   267.6898 </r>
       <r>     3.5389     9.4365   268.5245 </r>
       <r>     3.6274     9.8834   269.3987 </r>
       <r>     3.7158    10.0381   270.2866 </r>
       <r>     3.8043     9.8831   271.1608 </r>
       <r>     3.8927     9.0974   271.9655 </r>
       <r>     3.9812     9.6708   272.8210 </r>
       <r>     4.0696    10.0197   273.7072 </r>
       <r>     4.1581     9.8927   274.5823 </r>
       <r>     4.2465    10.4616   275.5077 </r>
       <r>     4.3350    10.5826   276.4437 </r>
       <r>     4.4235     9.9828   277.3267 </r>
       <r>     4.5119     9.8445   278.1975 </r>
       <r>     4.6004     9.8729   279.0708 </r>
       <r>     4.6888     9.8275   279.9401 </r>
       <r>     4.7773     9.8377   280.8103 </r>
       <r>     4.8657    10.3209   281.7232 </r>
       <r>     4.9542    11.1051   282.7055 </r>
       <r>     5.0426    11.4148   283.7152 </r>
       <r>     5.1311    10.3888   284.6341 </r>
       <r>     5.2195     9.3949   285.4651 </r>
       <r>     5.3080    10.2566   286.3723 </r>
       <r>     5.3964    11.5515   287.3941 </r>
       <r>     5.4849    12.3556   288.4870 </r>
       <r>     5.5733    12.8478   289.6234 </r>
       <r>     5.6618    12.4500   290.7247 </r>
       <r>     5.7503    11.1967   291.7151 </r>
       <r>     5.8387    11.0661   292.6939 </r>
       <r>     5.9272    11.8389   293.7411 </r>
       <r>     6.0156    12.8299   294.8759 </r>
       <r>     6.1041    13.0296   296.0285 </r>
       <r>     6.1925    13.1415   297.1909 </r>
       <r>     6.2810    13.7458   298.4068 </r>
       <r>     6.3694    13.8111   299.6284 </r>
       <r>     6.4579    13.7978   300.8489 </r>
       <r>     6.5463    14.2531   302.1096 </r>
       <r>     6.6348    14.6517   303.4056 </r>
       <r>     6.7232    14.3149   304.6718 </r>
       <r>     6.8117    14.6979   305.9719 </r>
       <r>     6.9002    16.5378   307.4347 </r>
       <r>     6.9886    17.5369   308.9859 </r>
       <r>     7.0771    16.8012   310.4720 </r>
       <r>     7.1655    15.4973   311.8428 </r>
       <r>     7.2540    14.0395   313.0847 </r>
       <r>     7.3424    13.4565   314.2750 </r>
       <r>     7.4309    14.2601   315.5363 </r>
       <r>     7.5193    15.1709   316.8782 </r>
       <r>     7.6078    14.5575   318.1659 </r>
       <r>     7.6962    12.2922   319.2532 </r>
       <r>     7.7847    11.9624   320.3113 </r>
       <r>     7.8731    11.8228   321.3571 </r>
       <r>     7.9616    10.9922   322.3294 </r>
       <r>     8.0500    10.8939   323.2930 </r>
       <r>     8.1385    11.1768   324.2816 </r>
       <r>     8.2270    10.2498   325.1882 </r>
       <r>     8.3154     9.3248   326.0130 </r>
       <r>     8.4039     9.3935   326.8439 </r>
       <r>     8.4923     9.4722   327.6818 </r>
       <r>     8.5808     9.6906   328.5389 </r>
       <r>     8.6692     9.8981   329.4145 </r>
       <r>     8.7577     9.3312   330.2398 </r>
       <r>     8.8461     8.3342   330.9770 </r>
       <r>     8.9346     7.7064   331.6587 </r>
       <r>     9.0230     7.1151   332.2880 </r>
       <r>     9.1115     7.1399   332.9196 </r>
       <r>     9.1999     7.9052   333.6188 </r>
       <r>     9.2884     7.5968   334.2908 </r>
       <r>     9.3769     6.2338   334.8422 </r>
       <r>     9.4653     5.8056   335.3557 </r>
       <r>     9.5538     5.1942   335.8152 </r>
       <r>     9.6422     4.5809   336.2204 </r>
       <r>     9.7307     4.5761   336.6252 </r>
       <r>     9.8191     4.6105   337.0330 </r>
       <r>     9.9076     4.0657   337.3926 </r>
       <r>     9.9960     3.6380   337.7144 </r>
       <r>    10.0845     3.3326   338.0092 </r>
       <r>    10.1729     2.8026   338.2571 </r>
       <r>    10.2614     2.3994   338.4693 </r>
       <r>    10.3498     2.6137   338.7005 </r>
       <r>    10.4383     2.9079   338.9577 </r>
       <r>    10.5267     2.2983   339.1610 </r>
       <r>    10.6152     1.6157   339.3039 </r>
       <r>    10.7037     1.2954   339.4185 </r>
       <r>    10.7921     1.2338   339.5277 </r>
       <r>    10.8806     1.2409   339.6374 </r>
       <r>    10.9690     1.1002   339.7347 </r>
       <r>    11.0575     0.7489   339.8010 </r>
       <r>    11.1459     0.6733   339.8605 </r>
       <r>    11.2344     0.5514   339.9093 </r>
       <r>    11.3228     0.3548   339.9407 </r>
       <r>    11.4113     0.2833   339.9657 </r>
       <r>    11.4997     0.2202   339.9852 </r>
       <r>    11.5882     0.1203   339.9959 </r>
       <r>    11.6766     0.0379   339.9992 </r>
       <r>    11.7651     0.0081   339.9999 </r>
       <r>    11.8536     0.0007   340.0000 </r>
       <r>    11.9420     0.0000   340.0000 </r>
       <r>    12.0305     0.0000   340.0000 </r>
       <r>    12.1189     0.0000   340.0000 </r>
       <r>    12.2074     0.0000   340.0000 </r>
       <r>    12.2958     0.0000   340.0000 </r>
       <r>    12.3843     0.0000   340.0000 </r>
       <r>    12.4727     0.0000   340.0000 </r>
       <r>    12.5612     0.0000   340.0000 </r>
       <r>    12.6496     0.0000   340.0000 </r>
       <r>    12.7381     0.0000   340.0000 </r>
       <r>    12.8265     0.0000   340.0000 </r>
      </set>
     </set>
    </array>
   </total>
  </dos>
 </calculation>
 <structure name="finalpos" >
  <crystal>
   <varray name="basis" >
    <v>       2.46549997      -2.46549997       0.00000000 </v>
    <v>       0.00000000       2.46549997      -2.46549997 </v>
    <v>      42.77667205      42.77667205      42.77667205 </v>
   </varray>
   <i name="volume">    780.07840094 </i>
   <varray name="rec_basis" >
    <v>       0.27039816      -0.13519908      -0.13519908 </v>
    <v>       0.13519908       0.13519908      -0.27039816 </v>
    <v>       0.00779241       0.00779241       0.00779241 </v>
   </varray>
  </crystal>
  <varray name="positions" >
   <v>       0.66666695       0.33333389       0.00100113 </v>
   <v>       0.00000027       0.00000054       0.03765430 </v>
   <v>       0.33333362       0.66666722       0.07662113 </v>
   <v>       0.66666695       0.33333389       0.11515777 </v>
   <v>       0.00000027       0.00000054       0.15370069 </v>
   <v>       0.33333362       0.66666722       0.19215792 </v>
   <v>       0.66666695       0.33333389       0.23054211 </v>
   <v>       0.00000027       0.00000054       0.26902470 </v>
   <v>       0.33333362       0.66666722       0.30732515 </v>
   <v>       0.66666695       0.33333389       0.34589073 </v>
   <v>       0.00000027       0.00000054       0.38417229 </v>
   <v>       0.33333362       0.66666722       0.42273787 </v>
   <v>       0.66666695       0.33333389       0.46103832 </v>
   <v>       0.00000027       0.00000054       0.49952092 </v>
   <v>       0.33333362       0.66666722       0.53790510 </v>
   <v>       0.66666695       0.33333389       0.57636234 </v>
   <v>       0.00000027       0.00000054       0.61490526 </v>
   <v>       0.33333362       0.66666722       0.65344190 </v>
   <v>       0.66666695       0.33333389       0.69240872 </v>
   <v>       0.00000027       0.00000054       0.72906189 </v>
  </varray>
 </structure>
</modeling>
