   20   20    1    1
  0.3900392E+02  0.3486744E-09  0.3486744E-09  0.7409137E-08  0.5000000E-15
   1.0000000000000000E-004
  CAR 
 Pb_2Dslab_20L                           
    280    200    250

  0.5000000E+00  0.0000000E+00  0.0000000E+00  0.5000000E-02
    1      -12.431614   1.000000
    2      -12.423299   1.000000
    3      -12.415099   1.000000
    4      -12.405029   1.000000
    5      -12.395523   1.000000
    6      -12.383977   1.000000
    7      -12.369537   1.000000
    8      -12.356106   1.000000
    9      -12.344580   1.000000
   10      -12.340596   1.000000
   11      -12.337640   1.000000
   12      -12.333302   1.000000
   13      -12.329856   1.000000
   14      -12.325344   1.000000
   15      -12.316621   1.000000
   16      -12.311674   1.000000
   17      -12.306409   1.000000
   18      -12.300359   1.000000
   19      -12.294513   1.000000
   20      -12.293277   1.000000
   21      -12.290828   1.000000
   22      -12.288270   1.000000
   23      -12.282612   1.000000
   24      -12.281794   1.000000
   25      -12.276647   1.000000
   26      -12.260765   1.000000
   27      -12.258735   1.000000
   28      -12.257636   1.000000
   29      -12.253768   1.000000
   30      -12.250442   1.000000
   31      -12.250422   1.000000
   32      -12.245254   1.000000
   33      -12.243477   1.000000
   34      -12.241724   1.000000
   35      -12.236702   1.000000
   36      -12.233542   1.000000
   37      -12.232830   1.000000
   38      -12.227531   1.000000
   39      -12.224532   1.000000
   40      -12.221761   1.000000
   41      -12.221423   1.000000
   42      -12.216787   1.000000
   43      -12.210863   1.000000
   44      -12.196888   1.000000
   45      -12.195375   1.000000
   46      -12.194305   1.000000
   47      -12.178831   1.000000
   48      -12.160623   1.000000
   49      -12.142808   1.000000
   50      -12.126301   1.000000
   51      -12.106708   1.000000
   52      -12.076082   1.000000
   53      -12.073365   1.000000
   54      -12.068959   1.000000
   55      -12.062509   1.000000
   56      -12.058825   1.000000
   57      -12.054013   1.000000
   58      -12.041689   1.000000
   59      -12.038760   1.000000
   60      -12.032823   1.000000
   61      -12.024210   1.000000
   62      -12.019370   1.000000
   63      -12.015982   1.000000
   64      -12.009013   1.000000
   65      -12.005089   1.000000
   66      -11.998635   1.000000
   67      -11.995765   1.000000
   68      -11.993994   1.000000
   69      -11.992484   1.000000
   70      -11.988180   1.000000
   71      -11.987174   1.000000
   72      -11.984974   1.000000
   73      -11.981655   1.000000
   74      -11.980800   1.000000
   75      -11.978879   1.000000
   76      -11.977704   1.000000
   77      -11.976968   1.000000
   78      -11.974982   1.000000
   79      -11.974025   1.000000
   80      -11.973606   1.000000
   81      -11.972552   1.000000
   82      -11.972284   1.000000
   83      -11.967851   1.000000
   84      -11.967590   1.000000
   85      -11.966891   1.000000
   86      -11.965371   1.000000
   87      -11.961985   1.000000
   88      -11.958344   1.000000
   89      -11.954766   1.000000
   90      -11.951347   1.000000
   91      -11.947864   1.000000
   92      -11.947609   1.000000
   93      -11.941759   1.000000
   94      -11.941160   1.000000
   95      -11.940733   1.000000
   96      -11.940145   1.000000
   97      -11.932993   1.000000
   98      -11.931971   1.000000
   99      -11.916600   1.000000
  100      -11.915524   1.000000
  101       -3.320406   1.000000
  102       -3.310416   1.000000
  103       -3.298251   1.000000
  104       -3.284881   1.000000
  105       -3.269314   1.000000
  106       -3.242832   1.000000
  107       -3.202389   1.000000
  108       -3.149144   1.000000
  109       -3.085595   1.000000
  110       -3.001207   1.000000
  111       -2.909456   1.000000
  112       -2.787651   1.000000
  113       -2.662336   1.000000
  114       -2.527473   1.000000
  115       -2.391068   1.000000
  116       -2.258601   1.000000
  117       -2.134492   1.000000
  118       -2.029987   1.000000
  119       -1.948230   1.000000
  120       -1.899053   1.000000
  121        0.577459   1.000000
  122        0.646392   1.000000
  123        0.746897   1.000000
  124        0.877726   1.000000
  125        1.040696   1.000000
  126        1.237050   1.000000
  127        1.460538   1.000000
  128        1.539757   1.000000
  129        1.655798   1.000000
  130        1.703388   1.000000
  131        1.825597   1.000000
  132        1.952495   1.000000
  133        2.033726   1.000000
  134        2.208276   1.000000
  135        2.260743   1.000000
  136        2.430769   1.000000
  137        2.476040   1.000000
  138        2.605339   1.000000
  139        2.642522   1.000000
  140        2.686563   1.000000
  141        5.277760   1.000000
  142        5.301692   1.000000
  143        5.446762   1.000000
  144        5.510379   1.000000
  145        5.728462   1.000000
  146        5.788395   1.000000
  147        6.095432   0.999422
  148        6.098779   0.999318
  149        6.390269   0.178759
  150        6.535105   0.001497
  151        6.663641   0.000001
  152        6.808957   0.000000
  153        6.896200   0.000000
  154        6.944450   0.000000
  155        7.010722   0.000000
  156        7.053835   0.000000
  157        7.095243   0.000000
  158        7.204680   0.000000
  159        7.344639   0.000000
  160        7.513147   0.000000
  161        7.556883   0.000000
  162        7.707234   0.000000
  163        7.919147   0.000000
  164        8.072667   0.000000
  165        8.170611   0.000000
  166        8.419525   0.000000
  167        8.587517   0.000000
  168        8.709989   0.000000
  169        8.988154   0.000000
  170        9.090837   0.000000
  171        9.269968   0.000000
  172        9.540565   0.000000
  173        9.564677   0.000000
  174        9.791588   0.000000
  175        9.992111   0.000000
  176       10.015232   0.000000
  177       10.197452   0.000000
  178       10.243935   0.000000
  179       10.333179   0.000000
  180       10.334876   0.000000
  181       10.339257   0.000000
  182       10.430405   0.000000
  183       10.469084   0.000000
  184       10.625425   0.000000
  185       10.782611   0.000000
  186       10.925965   0.000000
  187       11.056487   0.000000
  188       11.175498   0.000000
  189       11.284260   0.000000
  190       11.392808   0.000000
  191       11.503576   0.000000
  192       11.572954   0.000000
  193       11.658541   0.000000
  194       11.759874   0.000000
  195       11.849490   0.000000
  196       11.989953   0.000000
  197       12.069342   0.000000
  198       12.147351   0.000000
  199       12.249594   0.000000
  200       12.319762   0.000000
  201       12.498318   0.000000
  202       12.566844   0.000000
  203       12.740334   0.000000
  204       12.843166   0.000000
  205       12.853258   0.000000
  206       12.958216   0.000000
  207       13.110728   0.000000
  208       13.233359   0.000000
  209       13.390594   0.000000
  210       13.509521   0.000000
  211       13.607785   0.000000
  212       13.686232   0.000000
  213       13.836628   0.000000
  214       13.951931   0.000000
  215       14.233292   0.000000
  216       14.352287   0.000000
  217       14.364567   0.000000
  218       14.564516   0.000000
  219       14.567144   0.000000
  220       14.899100   0.000000
  221       15.117420   0.000000
  222       15.197818   0.000000
  223       15.244924   0.000000
  224       15.354774   0.000000
  225       15.779526   0.000000
  226       16.106588   0.000000
  227       16.137663   0.000000
  228       16.147431   0.000000
  229       16.210339   0.000000
  230       16.243966   0.000000
  231       16.273531   0.000000
  232       16.391850   0.000000
  233       16.487087   0.000000
  234       16.690338   0.000000
  235       16.768721   0.000000
  236       16.950900   0.000000
  237       16.952270   0.000000
  238       17.097338   0.000000
  239       17.132625   0.000000
  240       17.275914   0.000000
  241       17.452666   0.000000
  242       17.461991   0.000000
  243       17.672585   0.000000
  244       17.710936   0.000000
  245       17.847723   0.000000
  246       18.073063   0.000000
  247       18.244899   0.000000
  248       18.384216   0.000000
  249       18.474813   0.000000
  250       18.630783   0.000000

  0.4949495E+00  0.0000000E+00  0.0000000E+00  0.5000000E-02
    1      -12.431579   1.000000
    2      -12.423266   1.000000
    3      -12.415066   1.000000
    4      -12.404996   1.000000
    5      -12.395493   1.000000
    6      -12.383950   1.000000
    7      -12.369512   1.000000
    8      -12.356084   1.000000
    9      -12.344563   1.000000
   10      -12.340546   1.000000
   11      -12.337622   1.000000
   12      -12.333261   1.000000
   13      -12.329835   1.000000
   14      -12.325302   1.000000
   15      -12.316573   1.000000
   16      -12.311655   1.000000
   17      -12.306360   1.000000
   18      -12.300335   1.000000
   19      -12.294500   1.000000
   20      -12.293230   1.000000
   21      -12.290814   1.000000
   22      -12.288256   1.000000
   23      -12.282600   1.000000
   24      -12.281771   1.000000
   25      -12.276604   1.000000
   26      -12.260778   1.000000
   27      -12.258727   1.000000
   28      -12.257582   1.000000
   29      -12.253750   1.000000
   30      -12.250423   1.000000
   31      -12.250404   1.000000
   32      -12.245258   1.000000
   33      -12.243406   1.000000
   34      -12.241708   1.000000
   35      -12.236714   1.000000
   36      -12.233454   1.000000
   37      -12.232817   1.000000
   38      -12.227602   1.000000
   39      -12.224403   1.000000
   40      -12.221755   1.000000
   41      -12.221534   1.000000
   42      -12.216606   1.000000
   43      -12.210851   1.000000
   44      -12.196865   1.000000
   45      -12.195332   1.000000
   46      -12.194260   1.000000
   47      -12.178809   1.000000
   48      -12.160608   1.000000
   49      -12.142800   1.000000
   50      -12.126295   1.000000
   51      -12.106705   1.000000
   52      -12.076082   1.000000
   53      -12.073413   1.000000
   54      -12.069001   1.000000
   55      -12.062559   1.000000
   56      -12.058860   1.000000
   57      -12.054015   1.000000
   58      -12.041724   1.000000
   59      -12.038809   1.000000
   60      -12.032832   1.000000
   61      -12.024246   1.000000
   62      -12.019417   1.000000
   63      -12.015996   1.000000
   64      -12.009051   1.000000
   65      -12.005112   1.000000
   66      -11.998686   1.000000
   67      -11.995794   1.000000
   68      -11.994031   1.000000
   69      -11.992506   1.000000
   70      -11.988236   1.000000
   71      -11.987230   1.000000
   72      -11.985007   1.000000
   73      -11.981730   1.000000
   74      -11.980851   1.000000
   75      -11.978956   1.000000
   76      -11.977776   1.000000
   77      -11.977041   1.000000
   78      -11.975046   1.000000
   79      -11.974087   1.000000
   80      -11.973639   1.000000
   81      -11.972586   1.000000
   82      -11.972343   1.000000
   83      -11.967889   1.000000
   84      -11.967635   1.000000
   85      -11.966929   1.000000
   86      -11.965426   1.000000
   87      -11.962043   1.000000
   88      -11.958402   1.000000
   89      -11.954820   1.000000
   90      -11.951399   1.000000
   91      -11.947928   1.000000
   92      -11.947657   1.000000
   93      -11.941835   1.000000
   94      -11.941198   1.000000
   95      -11.940808   1.000000
   96      -11.940181   1.000000
   97      -11.933051   1.000000
   98      -11.932029   1.000000
   99      -11.916657   1.000000
  100      -11.915581   1.000000
  101       -3.332178   1.000000
  102       -3.318886   1.000000
  103       -3.304239   1.000000
  104       -3.288775   1.000000
  105       -3.270973   1.000000
  106       -3.242935   1.000000
  107       -3.201893   1.000000
  108       -3.148441   1.000000
  109       -3.084827   1.000000
  110       -3.000418   1.000000
  111       -2.908717   1.000000
  112       -2.786961   1.000000
  113       -2.661719   1.000000
  114       -2.526921   1.000000
  115       -2.390577   1.000000
  116       -2.258171   1.000000
  117       -2.134122   1.000000
  118       -2.029677   1.000000
  119       -1.947971   1.000000
  120       -1.898827   1.000000
  121        0.579497   1.000000
  122        0.648395   1.000000
  123        0.748841   1.000000
  124        0.879593   1.000000
  125        1.042482   1.000000
  126        1.238751   1.000000
  127        1.461952   1.000000
  128        1.541660   1.000000
  129        1.653938   1.000000
  130        1.708985   1.000000
  131        1.823504   1.000000
  132        1.958851   1.000000
  133        2.029872   1.000000
  134        2.216879   1.000000
  135        2.253503   1.000000
  136        2.441575   1.000000
  137        2.463972   1.000000
  138        2.612700   1.000000
  139        2.623953   1.000000
  140        2.720270   1.000000
  141        5.209945   1.000000
  142        5.363284   1.000000
  143        5.405120   1.000000
  144        5.551716   1.000000
  145        5.694441   1.000000
  146        5.822204   1.000000
  147        6.050097   0.999950
  148        6.144745   0.994647
  149        6.379683   0.220530
  150        6.548730   0.000786
  151        6.656943   0.000001
  152        6.811747   0.000000
  153        6.896749   0.000000
  154        6.944998   0.000000
  155        7.011268   0.000000
  156        7.054552   0.000000
  157        7.095788   0.000000
  158        7.205223   0.000000
  159        7.345181   0.000000
  160        7.513686   0.000000
  161        7.557602   0.000000
  162        7.707771   0.000000
  163        7.919680   0.000000
  164        8.073277   0.000000
  165        8.171142   0.000000
  166        8.420055   0.000000
  167        8.588058   0.000000
  168        8.710517   0.000000
  169        8.988683   0.000000
  170        9.091322   0.000000
  171        9.270499   0.000000
  172        9.541098   0.000000
  173        9.565129   0.000000
  174        9.792124   0.000000
  175        9.992483   0.000000
  176       10.015773   0.000000
  177       10.197998   0.000000
  178       10.245914   0.000000
  179       10.321628   0.000000
  180       10.339808   0.000000
  181       10.346813   0.000000
  182       10.430960   0.000000
  183       10.469138   0.000000
  184       10.625951   0.000000
  185       10.782824   0.000000
  186       10.926088   0.000000
  187       11.056461   0.000000
  188       11.175305   0.000000
  189       11.283939   0.000000
  190       11.392489   0.000000
  191       11.504230   0.000000
  192       11.571776   0.000000
  193       11.660848   0.000000
  194       11.756689   0.000000
  195       11.852754   0.000000
  196       11.983961   0.000000
  197       12.076554   0.000000
  198       12.142734   0.000000
  199       12.247705   0.000000
  200       12.320494   0.000000
  201       12.500326   0.000000
  202       12.567878   0.000000
  203       12.736155   0.000000
  204       12.829806   0.000000
  205       12.843178   0.000000
  206       12.992241   0.000000
  207       13.112410   0.000000
  208       13.235100   0.000000
  209       13.388717   0.000000
  210       13.474538   0.000000
  211       13.645879   0.000000
  212       13.686922   0.000000
  213       13.837761   0.000000
  214       13.951937   0.000000
  215       14.216622   0.000000
  216       14.310652   0.000000
  217       14.424198   0.000000
  218       14.560323   0.000000
  219       14.572850   0.000000
  220       14.899490   0.000000
  221       15.116326   0.000000
  222       15.146055   0.000000
  223       15.295542   0.000000
  224       15.358739   0.000000
  225       15.780760   0.000000
  226       16.083674   0.000000
  227       16.121495   0.000000
  228       16.137889   0.000000
  229       16.228664   0.000000
  230       16.273762   0.000000
  231       16.275303   0.000000
  232       16.393975   0.000000
  233       16.487323   0.000000
  234       16.684719   0.000000
  235       16.768960   0.000000
  236       16.944157   0.000000
  237       16.964825   0.000000
  238       17.097588   0.000000
  239       17.102063   0.000000
  240       17.309282   0.000000
  241       17.446756   0.000000
  242       17.462050   0.000000
  243       17.641292   0.000000
  244       17.746979   0.000000
  245       17.847070   0.000000
  246       18.092308   0.000000
  247       18.248257   0.000000
  248       18.373279   0.000000
  249       18.516503   0.000000
  250       18.674970   0.000000

  0.4898990E+00  0.0000000E+00  0.0000000E+00  0.5000000E-02
    1      -12.431474   1.000000
    2      -12.423163   1.000000
    3      -12.414969   1.000000
    4      -12.404908   1.000000
    5      -12.395411   1.000000
    6      -12.383876   1.000000
    7      -12.369449   1.000000
    8      -12.356029   1.000000
    9      -12.344509   1.000000
   10      -12.340411   1.000000
   11      -12.337565   1.000000
   12      -12.333126   1.000000
   13      -12.329770   1.000000
   14      -12.325175   1.000000
   15      -12.316440   1.000000
   16      -12.311606   1.000000
   17      -12.306228   1.000000
   18      -12.300289   1.000000
   19      -12.294460   1.000000
   20      -12.293096   1.000000
   21      -12.290783   1.000000
   22      -12.288212   1.000000
   23      -12.282561   1.000000
   24      -12.281702   1.000000
   25      -12.276478   1.000000
   26      -12.260818   1.000000
   27      -12.258705   1.000000
   28      -12.257422   1.000000
   29      -12.253705   1.000000
   30      -12.250375   1.000000
   31      -12.250349   1.000000
   32      -12.245263   1.000000
   33      -12.243202   1.000000
   34      -12.241661   1.000000
   35      -12.236738   1.000000
   36      -12.233202   1.000000
   37      -12.232772   1.000000
   38      -12.227776   1.000000
   39      -12.224056   1.000000
   40      -12.221813   1.000000
   41      -12.221712   1.000000
   42      -12.216113   1.000000
   43      -12.210811   1.000000
   44      -12.196829   1.000000
   45      -12.195205   1.000000
   46      -12.194125   1.000000
   47      -12.178778   1.000000
   48      -12.160582   1.000000
   49      -12.142778   1.000000
   50      -12.126280   1.000000
   51      -12.106697   1.000000
   52      -12.076085   1.000000
   53      -12.073549   1.000000
   54      -12.069124   1.000000
   55      -12.062700   1.000000
   56      -12.058967   1.000000
   57      -12.054029   1.000000
   58      -12.041825   1.000000
   59      -12.038951   1.000000
   60      -12.032861   1.000000
   61      -12.024346   1.000000
   62      -12.019563   1.000000
   63      -12.016047   1.000000
   64      -12.009150   1.000000
   65      -12.005179   1.000000
   66      -11.998842   1.000000
   67      -11.995875   1.000000
   68      -11.994132   1.000000
   69      -11.992590   1.000000
   70      -11.988398   1.000000
   71      -11.987392   1.000000
   72      -11.985108   1.000000
   73      -11.981948   1.000000
   74      -11.981025   1.000000
   75      -11.979159   1.000000
   76      -11.977979   1.000000
   77      -11.977242   1.000000
   78      -11.975214   1.000000
   79      -11.974242   1.000000
   80      -11.973741   1.000000
   81      -11.972691   1.000000
   82      -11.972487   1.000000
   83      -11.968000   1.000000
   84      -11.967802   1.000000
   85      -11.967042   1.000000
   86      -11.965583   1.000000
   87      -11.962215   1.000000
   88      -11.958577   1.000000
   89      -11.954992   1.000000
   90      -11.951562   1.000000
   91      -11.948106   1.000000
   92      -11.947800   1.000000
   93      -11.942051   1.000000
   94      -11.941303   1.000000
   95      -11.941021   1.000000
   96      -11.940279   1.000000
   97      -11.933222   1.000000
   98      -11.932200   1.000000
   99      -11.916825   1.000000
  100      -11.915749   1.000000
  101       -3.359365   1.000000
  102       -3.341976   1.000000
  103       -3.322576   1.000000
  104       -3.301921   1.000000
  105       -3.278373   1.000000
  106       -3.245616   1.000000
  107       -3.201940   1.000000
  108       -3.147216   1.000000
  109       -3.083037   1.000000
  110       -2.998346   1.000000
  111       -2.906683   1.000000
  112       -2.785003   1.000000
  113       -2.659940   1.000000
  114       -2.525315   1.000000
  115       -2.389139   1.000000
  116       -2.256906   1.000000
  117       -2.133030   1.000000
  118       -2.028761   1.000000
  119       -1.947205   1.000000
  120       -1.898158   1.000000
  121        0.585606   1.000000
  122        0.654401   1.000000
  123        0.754669   1.000000
  124        0.885195   1.000000
  125        1.047837   1.000000
  126        1.243849   1.000000
  127        1.466407   1.000000
  128        1.546524   1.000000
  129        1.653399   1.000000
  130        1.719281   1.000000
  131        1.822121   1.000000
  132        1.970638   1.000000
  133        2.025576   1.000000
  134        2.230651   1.000000
  135        2.245138   1.000000
  136        2.440403   1.000000
  137        2.465882   1.000000
  138        2.579460   1.000000
  139        2.663345   1.000000
  140        2.772911   1.000000
  141        5.131292   1.000000
  142        5.322455   1.000000
  143        5.452259   1.000000
  144        5.575295   1.000000
  145        5.679016   1.000000
  146        5.855466   1.000000
  147        6.022242   0.999991
  148        6.179537   0.980306
  149        6.363630   0.293435
  150        6.577205   0.000183
  151        6.641315   0.000004
  152        6.817872   0.000000
  153        6.898394   0.000000
  154        6.946641   0.000000
  155        7.012908   0.000000
  156        7.056861   0.000000
  157        7.097424   0.000000
  158        7.206853   0.000000
  159        7.346804   0.000000
  160        7.515303   0.000000
  161        7.559751   0.000000
  162        7.709380   0.000000
  163        7.921282   0.000000
  164        8.075106   0.000000
  165        8.172736   0.000000
  166        8.421645   0.000000
  167        8.589680   0.000000
  168        8.712104   0.000000
  169        8.990270   0.000000
  170        9.092778   0.000000
  171        9.272089   0.000000
  172        9.542696   0.000000
  173        9.566481   0.000000
  174        9.793733   0.000000
  175        9.993630   0.000000
  176       10.017396   0.000000
  177       10.199638   0.000000
  178       10.251559   0.000000
  179       10.310817   0.000000
  180       10.341462   0.000000
  181       10.358804   0.000000
  182       10.432624   0.000000
  183       10.469569   0.000000
  184       10.627484   0.000000
  185       10.783469   0.000000
  186       10.926444   0.000000
  187       11.056372   0.000000
  188       11.174715   0.000000
  189       11.282972   0.000000
  190       11.391586   0.000000
  191       11.505984   0.000000
  192       11.568989   0.000000
  193       11.666924   0.000000
  194       11.748947   0.000000
  195       11.860298   0.000000
  196       11.971797   0.000000
  197       12.091023   0.000000
  198       12.132444   0.000000
  199       12.239419   0.000000
  200       12.325041   0.000000
  201       12.504778   0.000000
  202       12.572160   0.000000
  203       12.708257   0.000000
  204       12.814230   0.000000
  205       12.842484   0.000000
  206       13.053259   0.000000
  207       13.118550   0.000000
  208       13.240318   0.000000
  209       13.374564   0.000000
  210       13.427434   0.000000
  211       13.685852   0.000000
  212       13.713956   0.000000
  213       13.841409   0.000000
  214       13.951944   0.000000
  215       14.167704   0.000000
  216       14.293357   0.000000
  217       14.493284   0.000000
  218       14.556125   0.000000
  219       14.582798   0.000000
  220       14.900727   0.000000
  221       15.066783   0.000000
  222       15.128099   0.000000
  223       15.331322   0.000000
  224       15.395685   0.000000
  225       15.784357   0.000000
  226       16.019009   0.000000
  227       16.106168   0.000000
  228       16.138561   0.000000
  229       16.247253   0.000000
  230       16.274448   0.000000
  231       16.333121   0.000000
  232       16.406486   0.000000
  233       16.488032   0.000000
  234       16.670083   0.000000
  235       16.769701   0.000000
  236       16.932469   0.000000
  237       16.987217   0.000000
  238       17.050119   0.000000
  239       17.098349   0.000000
  240       17.374055   0.000000
  241       17.433814   0.000000
  242       17.462637   0.000000
  243       17.609431   0.000000
  244       17.800337   0.000000
  245       17.847625   0.000000
  246       18.096370   0.000000
  247       18.245575   0.000000
  248       18.382424   0.000000
  249       18.502591   0.000000
  250       18.639244   0.000000

  0.4848485E+00  0.0000000E+00  0.0000000E+00  0.5000000E-02
    1      -12.431301   1.000000
    2      -12.422994   1.000000
    3      -12.414807   1.000000
    4      -12.404753   1.000000
    5      -12.395267   1.000000
    6      -12.383752   1.000000
    7      -12.369346   1.000000
    8      -12.355937   1.000000
    9      -12.344423   1.000000
   10      -12.340193   1.000000
   11      -12.337476   1.000000
   12      -12.332903   1.000000
   13      -12.329668   1.000000
   14      -12.324970   1.000000
   15      -12.316224   1.000000
   16      -12.311525   1.000000
   17      -12.306001   1.000000
   18      -12.300214   1.000000
   19      -12.294395   1.000000
   20      -12.292874   1.000000
   21      -12.290732   1.000000
   22      -12.288137   1.000000
   23      -12.282493   1.000000
   24      -12.281587   1.000000
   25      -12.276273   1.000000
   26      -12.260870   1.000000
   27      -12.258673   1.000000
   28      -12.257160   1.000000
   29      -12.253629   1.000000
   30      -12.250299   1.000000
   31      -12.250251   1.000000
   32      -12.245250   1.000000
   33      -12.242891   1.000000
   34      -12.241584   1.000000
   35      -12.236748   1.000000
   36      -12.232825   1.000000
   37      -12.232698   1.000000
   38      -12.227988   1.000000
   39      -12.223607   1.000000
   40      -12.222133   1.000000
   41      -12.221641   1.000000
   42      -12.215400   1.000000
   43      -12.210745   1.000000
   44      -12.196769   1.000000
   45      -12.194994   1.000000
   46      -12.193902   1.000000
   47      -12.178726   1.000000
   48      -12.160538   1.000000
   49      -12.142741   1.000000
   50      -12.126254   1.000000
   51      -12.106680   1.000000
   52      -12.076085   1.000000
   53      -12.073778   1.000000
   54      -12.069329   1.000000
   55      -12.062935   1.000000
   56      -12.059150   1.000000
   57      -12.054052   1.000000
   58      -12.041997   1.000000
   59      -12.039184   1.000000
   60      -12.032908   1.000000
   61      -12.024514   1.000000
   62      -12.019805   1.000000
   63      -12.016120   1.000000
   64      -12.009312   1.000000
   65      -12.005282   1.000000
   66      -11.999099   1.000000
   67      -11.996012   1.000000
   68      -11.994292   1.000000
   69      -11.992734   1.000000
   70      -11.988663   1.000000
   71      -11.987658   1.000000
   72      -11.985275   1.000000
   73      -11.982302   1.000000
   74      -11.981291   1.000000
   75      -11.979496   1.000000
   76      -11.978310   1.000000
   77      -11.977570   1.000000
   78      -11.975491   1.000000
   79      -11.974501   1.000000
   80      -11.973912   1.000000
   81      -11.972869   1.000000
   82      -11.972725   1.000000
   83      -11.968182   1.000000
   84      -11.968060   1.000000
   85      -11.967230   1.000000
   86      -11.965835   1.000000
   87      -11.962493   1.000000
   88      -11.958853   1.000000
   89      -11.955278   1.000000
   90      -11.951826   1.000000
   91      -11.948409   1.000000
   92      -11.948040   1.000000
   93      -11.942391   1.000000
   94      -11.941499   1.000000
   95      -11.941345   1.000000
   96      -11.940453   1.000000
   97      -11.933510   1.000000
   98      -11.932489   1.000000
   99      -11.917101   1.000000
  100      -11.916025   1.000000
  101       -3.394972   1.000000
  102       -3.374430   1.000000
  103       -3.350660   1.000000
  104       -3.324402   1.000000
  105       -3.293957   1.000000
  106       -3.254338   1.000000
  107       -3.205488   1.000000
  108       -3.147516   1.000000
  109       -3.081536   1.000000
  110       -2.995808   1.000000
  111       -2.903863   1.000000
  112       -2.782094   1.000000
  113       -2.657208   1.000000
  114       -2.522794   1.000000
  115       -2.386854   1.000000
  116       -2.254878   1.000000
  117       -2.131271   1.000000
  118       -2.027278   1.000000
  119       -1.945962   1.000000
  120       -1.897069   1.000000
  121        0.595774   1.000000
  122        0.664399   1.000000
  123        0.764375   1.000000
  124        0.894527   1.000000
  125        1.056758   1.000000
  126        1.252328   1.000000
  127        1.474268   1.000000
  128        1.552870   1.000000
  129        1.659773   1.000000
  130        1.725810   1.000000
  131        1.828990   1.000000
  132        1.973638   1.000000
  133        2.034706   1.000000
  134        2.218877   1.000000
  135        2.266106   1.000000
  136        2.423041   1.000000
  137        2.478397   1.000000
  138        2.570777   1.000000
  139        2.714037   1.000000
  140        2.830401   1.000000
  141        5.052561   1.000000
  142        5.249403   1.000000
  143        5.507324   1.000000
  144        5.551686   1.000000
  145        5.729761   1.000000