       N       E                     dE             d eps       ncg     rms          rms(c)
DAV:   1    -0.211712081771E+02   -0.21171E+02   -0.33858E+03149610   0.151E+02
DAV:   2    -0.789118801992E+02   -0.57741E+02   -0.57182E+02120830   0.621E+01
DAV:   3    -0.809605313224E+02   -0.20487E+01   -0.20466E+01141040   0.972E+00
DAV:   4    -0.810539286213E+02   -0.93397E-01   -0.93389E-01144600   0.186E+00
DAV:   5    -0.810552138203E+02   -0.12852E-02   -0.12851E-02139860   0.221E-01
DAV:   6    -0.810552487434E+02   -0.34923E-04   -0.34923E-04135950   0.331E-02
DAV:   7    -0.810552493821E+02   -0.63871E-06   -0.63790E-06100420   0.471E-03
   1 F= -.81055249E+02 E0= -.81035929E+02  d E =-.386409E-01
