 vasp.5.4.4.18Apr17-6-g9f103f2a35 (build Sep 13 2019 13:34:59) complex           
 executed on             LinuxGNU date 2020.11.20  20:21:16
 running on   30 total cores
 distrk:  each k-point on   30 cores,    1 groups
 distr:  one band on NCORES_PER_BAND=   6 cores,    5 groups


--------------------------------------------------------------------------------------------------------


 INCAR:
 POTCAR:    PAW_PBE Pb_d 06Sep2000                
 POTCAR:    PAW_PBE Pb_d 06Sep2000                
   VRHFIN =Pb:                                                                  
   LEXCH  = PE                                                                  
   EATOM  =  1661.6185 eV,  122.1255 Ry                                         
                                                                                
   TITEL  = PAW_PBE Pb_d 06Sep2000                                              
   LULTRA =        F    use ultrasoft PP ?                                      
   IUNSCR =        1    unscreen: 0-lin 1-nonlin 2-no                           
   RPACOR =    2.200    partial core radius                                     
   POMASS =  207.200; ZVAL   =   14.000    mass and valenz                      
   RCORE  =    2.500    outmost cutoff radius                                   
   RWIGS  =    3.260; RWIGS  =    1.725    wigner-seitz radius (au A)           
   ENMAX  =  237.835; ENMIN  =  178.376 eV                                      
   ICORE  =        3    local potential                                         
   LCOR   =        T    correct aug charges                                     
   LPAW   =        T    paw PP                                                  
   EAUG   =  391.914                                                            
   DEXC   =    0.000                                                            
   RMAX   =    2.565    core radius for proj-oper                               
   RAUG   =    1.300    factor for augmentation sphere                          
   RDEP   =    2.643    radius for radial grids                                 
   RDEPT  =    2.092    core radius for aug-charge                              
                                                                                
   Atomic configuration                                                         
   16 entries                                                                   
     n  l   j            E        occ.                                          
     1  0  0.50    -88091.8466   2.0000                                         
     2  0  0.50    -15753.4197   2.0000                                         
     2  1  1.50    -13508.1797   6.0000                                         
     3  0  0.50     -3781.7194   2.0000                                         
     3  1  1.50     -3138.2529   6.0000                                         
     3  2  2.50     -2483.2977  10.0000                                         
     4  0  0.50      -856.2895   2.0000                                         
     4  1  1.50      -645.4942   6.0000                                         
     4  2  2.50      -401.8768  10.0000                                         
     4  3  3.50      -132.9059  14.0000                                         
     5  0  0.50      -144.0950   2.0000                                         
     5  1  1.50       -85.7879   6.0000                                         
     5  2  2.50       -21.1769  10.0000                                         
     6  0  0.50       -12.0372   2.0000                                         
     6  1  1.50        -3.4971   2.0000                                         
     5  3  2.50        -2.7212   0.0000                                         
   Description                                                                  
     l       E           TYP  RCUT    TYP  RCUT                                 
     2    -21.1768523     23  2.500                                             
     2      1.3605826     23  2.500                                             
     0    -12.0371562     23  2.500                                             
     0     13.6058260     23  2.500                                             
     1     -3.4971339     23  2.500                                             
     1     13.6058260     23  2.500                                             
     3     -1.3605826      7  2.500                                             
  local pseudopotential read in
  partial core-charges read in
  partial kinetic energy density read in
  atomic valenz-charges read in
  non local Contribution for L=           2  read in
    real space projection operators read in
  non local Contribution for L=           2  read in
    real space projection operators read in
  non local Contribution for L=           0  read in
    real space projection operators read in
  non local Contribution for L=           0  read in
    real space projection operators read in
  non local Contribution for L=           1  read in
    real space projection operators read in
  non local Contribution for L=           1  read in
    real space projection operators read in
    PAW grid and wavefunctions read in

   number of l-projection  operators is LMAX  =           6
   number of lm-projection operators is LMMAX =          18


 ----------------------------------------------------------------------------- 
|                                                                             |
|  ADVICE TO THIS USER RUNNING 'VASP/VAMP'   (HEAR YOUR MASTER'S VOICE ...):  |
|                                                                             |
|      You have a (more or less) 'large supercell' and for larger cells       |
|      it might be more efficient to use real space projection opertators     |
|      So try LREAL= Auto  in the INCAR   file.                               |
|      Mind:          For very  accurate calculation you might also keep the  |
|      reciprocal projection scheme          (i.e. LREAL=.FALSE.)             |
|                                                                             |
 ----------------------------------------------------------------------------- 

  PAW_PBE Pb_d 06Sep2000                :
 energy of atom  1       EATOM=-1661.6185
 kinetic energy error for atom=    0.0069 (will be added to EATOM!!)


 POSCAR: Pb_2Dslab_20L                           
  positions in direct lattice
  velocities in cartesian coordinates
 exchange correlation table for  LEXCH =        8
   RHO(1)=    0.500       N(1)  =     2000
   RHO(2)=  100.500       N(2)  =     4000



--------------------------------------------------------------------------------------------------------


 ion  position               nearest neighbor table
   1  0.667  0.333  0.001-   2 3.38   2 3.38   2 3.38
   2  0.000  0.000  0.038-   1 3.38   1 3.38   1 3.38   3 3.52   3 3.52   3 3.52
   3  0.333  0.667  0.077-   4 3.49   4 3.49   4 3.49   2 3.52   2 3.52   2 3.52
   4  0.667  0.333  0.115-   3 3.49   3 3.49   3 3.49   5 3.49   5 3.49   5 3.49
   5  0.000  0.000  0.154-   6 3.49   6 3.49   6 3.49   4 3.49   4 3.49   4 3.49
   6  0.333  0.667  0.192-   7 3.48   7 3.48   7 3.48   5 3.49   5 3.49   5 3.49
   7  0.667  0.333  0.231-   6 3.48   6 3.48   6 3.48   8 3.49   8 3.49   8 3.49
   8  0.000  0.000  0.269-   9 3.48   9 3.48   9 3.48   7 3.49   7 3.49   7 3.49
   9  0.333  0.667  0.307-   8 3.48   8 3.48   8 3.48  10 3.50  10 3.50  10 3.50
  10  0.667  0.333  0.346-  11 3.48  11 3.48  11 3.48   9 3.50   9 3.50   9 3.50
  11  0.000  0.000  0.384-  10 3.48  10 3.48  10 3.48  12 3.50  12 3.50  12 3.50
  12  0.333  0.667  0.423-  13 3.48  13 3.48  13 3.48  11 3.50  11 3.50  11 3.50
  13  0.667  0.333  0.461-  12 3.48  12 3.48  12 3.48  14 3.49  14 3.49  14 3.49
  14  0.000  0.000  0.500-  15 3.48  15 3.48  15 3.48  13 3.49  13 3.49  13 3.49
  15  0.333  0.667  0.538-  14 3.48  14 3.48  14 3.48  16 3.49  16 3.49  16 3.49
  16  0.667  0.333  0.576-  15 3.49  15 3.49  15 3.49  17 3.49  17 3.49  17 3.49
  17  0.000  0.000  0.615-  18 3.49  18 3.49  18 3.49  16 3.49  16 3.49  16 3.49
  18  0.333  0.667  0.653-  17 3.49  17 3.49  17 3.49  19 3.52  19 3.52  19 3.52
  19  0.667  0.333  0.692-  20 3.38  20 3.38  20 3.38  18 3.52  18 3.52  18 3.52
  20  0.000  0.000  0.729-  19 3.38  19 3.38  19 3.38

  LATTYP: Found a hexagonal cell.
 ALAT       =     3.4867435000
 C/A-ratio  =    21.2494464735
  
  Lattice vectors:
  
 A1 = (   2.4654999731,  -2.4654999731,   0.0000000000)
 A2 = (   0.0000000000,   2.4654999731,  -2.4654999731)
 A3 = (  42.7766720505,  42.7766720505,  42.7766720505)


Analysis of symmetry for initial positions (statically):
=====================================================================
 Subroutine PRICEL returns:
 Original cell was already a primitive cell.
 

 Routine SETGRP: Setting up the symmetry group for a 
 hexagonal supercell.


 Subroutine GETGRP returns: Found 12 space group operations
 (whereof  6 operations were pure point group operations)
 out of a pool of 24 trial point group operations.


The static configuration has the point symmetry C_3v.
 The point group associated with its full space group is D_3d.


Analysis of symmetry for dynamics (positions and initial velocities):
=====================================================================
 Subroutine PRICEL returns:
 Original cell was already a primitive cell.
 

 Routine SETGRP: Setting up the symmetry group for a 
 hexagonal supercell.


 Subroutine GETGRP returns: Found 12 space group operations
 (whereof  6 operations were pure point group operations)
 out of a pool of 24 trial point group operations.


The dynamic configuration has the point symmetry C_3v.
 The point group associated with its full space group is D_3d.


 Subroutine INISYM returns: Found 12 space group operations
 (whereof  6 operations are pure point group operations),
 and found     1 'primitive' translations



 KPOINTS: Pb_2Dslab_20L M-G-L                     
  interpolating k-points between supplied coordinates
  k-points in reciprocal lattice
Space group operators:
 irot       det(A)        alpha          n_x          n_y          n_z        tau_x        tau_y        tau_z
    1     1.000000     0.000000     1.000000     0.000000     0.000000     0.000000     0.000000     0.000000
    2     1.000000   120.000000    -0.577350    -0.577350    -0.577350     0.000000     0.000000     0.000000
    3     1.000000   120.000000     0.577350     0.577350     0.577350     0.000000     0.000000     0.000000
    4    -1.000000   180.000000     0.707107    -0.707107     0.000000     0.000000     0.000000     0.000000
    5    -1.000000   180.000000     0.000000     0.707107    -0.707107     0.000000     0.000000     0.000000
    6    -1.000000   180.000000     0.707107    -0.000000    -0.707107     0.000000     0.000000     0.000000
    7    -1.000000     0.000000     1.000000     0.000000     0.000000     0.666667     0.333334     0.730063
    8    -1.000000   120.000000    -0.577350    -0.577350    -0.577350     0.666666     0.333334     0.730063
    9    -1.000000   120.000000     0.577350     0.577350     0.577350     0.666667     0.333334     0.730063
   10     1.000000   180.000000     0.707107    -0.707107     0.000000     0.666667     0.333334     0.730063
   11     1.000000   180.000000     0.000000     0.707107    -0.707107     0.666667     0.333334     0.730063
   12     1.000000   180.000000     0.707107    -0.000000    -0.707107     0.666666     0.333334     0.730063


--------------------------------------------------------------------------------------------------------




 Dimension of arrays:
   k-points           NKPTS =    200   k-points in BZ     NKDIM =    200   number of bands    NBANDS=    250
   number of dos      NEDOS =    301   number of ions     NIONS =     20
   non local maximal  LDIM  =      6   non local SUM 2l+1 LMDIM =     18
   total plane-waves  NPLWV = 122472
   max r-space proj   IRMAX =      1   max aug-charges    IRDMAX=   8534
   dimension x,y,z NGX =    18 NGY =   18 NGZ =  378
   dimension x,y,z NGXF=    36 NGYF=   36 NGZF=  756
   support grid    NGXF=    36 NGYF=   36 NGZF=  756
   ions per type =              20
   NGX,Y,Z   is equivalent  to a cutoff of   8.58,  8.58,  8.48 a.u.
   NGXF,Y,Z  is equivalent  to a cutoff of  17.16, 17.16, 16.96 a.u.

 SYSTEM =  Pb_2Dslab_20L                           
 POSCAR =  Pb_2Dslab_20L                           

 Startparameter for this run:
   NWRITE =      2    write-flag & timer
   PREC   = normal    normal or accurate (medium, high low for compatibility)
   ISTART =      1    job   : 0-new  1-cont  2-samecut
   ICHARG =     11    charge: 1-file 2-atom 10-const
   ISPIN  =      1    spin polarized calculation?
   LNONCOLLINEAR =      F non collinear calculations
   LSORBIT =      F    spin-orbit coupling
   INIWAV =      1    electr: 0-lowe 1-rand  2-diag
   LASPH  =      F    aspherical Exc in radial PAW
   METAGGA=      F    non-selfconsistent MetaGGA calc.

 Electronic Relaxation 1
   ENCUT  =  400.0 eV  29.40 Ry    5.42 a.u.   5.69  5.69120.82*2*pi/ulx,y,z
   ENINI  =  400.0     initial cutoff
   ENAUG  =  391.9 eV  augmentation charge cutoff
   NELM   =     60;   NELMIN=  2; NELMDL=  0     # of ELM steps 
   EDIFF  = 0.1E-05   stopping-criterion for ELM
   LREAL  =      F    real-space projection
   NLSPLINE    = F    spline interpolate recip. space projectors
   LCOMPAT=      F    compatible to vasp.4.4
   GGA_COMPAT  = T    GGA compatible to vasp.4.4-vasp.4.6
   LMAXPAW     = -100 max onsite density
   LMAXMIX     =    2 max onsite mixed and CHGCAR
   VOSKOWN=      0    Vosko Wilk Nusair interpolation
   ROPT   =    0.00000
 Ionic relaxation
   EDIFFG = 0.1E-04   stopping-criterion for IOM
   NSW    =      0    number of steps for IOM
   NBLOCK =      1;   KBLOCK =      1    inner block; outer block 
   IBRION =     -1    ionic relax: 0-MD 1-quasi-New 2-CG
   NFREE  =      0    steps in history (QN), initial steepest desc. (CG)
   ISIF   =      2    stress and relaxation
   IWAVPR =     10    prediction:  0-non 1-charg 2-wave 3-comb
   ISYM   =      2    0-nonsym 1-usesym 2-fastsym
   LCORR  =      T    Harris-Foulkes like correction to forces

   POTIM  = 0.5000    time-step for ionic-motion
   TEIN   =    0.0    initial temperature
   TEBEG  =    0.0;   TEEND  =   0.0 temperature during run
   SMASS  =  -3.00    Nose mass-parameter (am)
   estimated Nose-frequenzy (Omega)   =  0.10E-29 period in steps =****** mass=  -0.278E-27a.u.
   SCALEE = 1.0000    scale energy and forces
   NPACO  =    256;   APACO  = 16.0  distance and # of slots for P.C.
   PSTRESS=    0.0 pullay stress

  Mass of Ions in am
   POMASS = 207.20
  Ionic Valenz
   ZVAL   =  14.00
  Atomic Wigner-Seitz radii
   RWIGS  =  -1.00
  virtual crystal weights 
   VCA    =   1.00
   NELECT =     280.0000    total number of electrons
   NUPDOWN=      -1.0000    fix difference up-down

 DOS related values:
   EMIN   =  10.00;   EMAX   =-10.00  energy-range for DOS
   EFERMI =   0.00
   ISMEAR =     0;   SIGMA  =   0.10  broadening in eV -4-tet -1-fermi 0-gaus

 Electronic relaxation 2 (details)
   IALGO  =     38    algorithm
   LDIAG  =      T    sub-space diagonalisation (order eigenvalues)
   LSUBROT=      F    optimize rotation matrix (better conditioning)
   TURBO    =      0    0=normal 1=particle mesh
   IRESTART =      0    0=no restart 2=restart with 2 vectors
   NREBOOT  =      0    no. of reboots
   NMIN     =      0    reboot dimension
   EREF     =   0.00    reference energy to select bands
   IMIX   =      4    mixing-type and parameters
     AMIX     =   0.40;   BMIX     =  1.00
     AMIX_MAG =   1.60;   BMIX_MAG =  1.00
     AMIN     =   0.10
     WC   =   100.;   INIMIX=   1;  MIXPRE=   1;  MAXMIX= -45

 Intra band minimization:
   WEIMIN = 0.0000     energy-eigenvalue tresh-hold
   EBREAK =  0.10E-08  absolut break condition
   DEPER  =   0.30     relativ break condition  

   TIME   =   0.40     timestep for ELM

  volume/ion in A,a.u.               =      39.00       263.21
  Fermi-wavevector in a.u.,A,eV,Ry     =   1.163451  2.198604 18.417094  1.353618
  Thomas-Fermi vector in A             =   2.300001

 Write flags
   LWAVE        =      T    write WAVECAR
   LDOWNSAMPLE  =      F    k-point downsampling of WAVECAR
   LCHARG       =      T    write CHGCAR
   LVTOT        =      F    write LOCPOT, total local potential
   LVHAR        =      F    write LOCPOT, Hartree potential only
   LELF         =      F    write electronic localiz. function (ELF)
   LORBIT       =     11    0 simple, 1 ext, 2 COOP (PROOUT), +10 PAW based schemes


 Dipole corrections
   LMONO  =      F    monopole corrections only (constant potential shift)
   LDIPOL =      F    correct potential (dipole corrections)
   IDIPOL =      0    1-x, 2-y, 3-z, 4-all directions 
   EPSILON=  1.0000000 bulk dielectric constant

 Exchange correlation treatment:
   GGA     =    PE    GGA type
   LEXCH   =     8    internal setting for exchange type
   VOSKOWN=      0    Vosko Wilk Nusair interpolation
   LHFCALC =     F    Hartree Fock is set to
   LHFONE  =     F    Hartree Fock one center treatment
   AEXX    =    0.0000 exact exchange contribution

 Linear response parameters
   LEPSILON=     F    determine dielectric tensor
   LRPA    =     F    only Hartree local field effects (RPA)
   LNABLA  =     F    use nabla operator in PAW spheres
   LVEL    =     F    velocity operator in full k-point grid
   LINTERFAST=   F  fast interpolation
   KINTER  =     0    interpolate to denser k-point grid
   CSHIFT  =0.1000    complex shift for real part using Kramers Kronig
   OMEGAMAX=  -1.0    maximum frequency
   DEG_THRESHOLD= 0.2000000E-02 threshold for treating states as degnerate
   RTIME   =   -0.100 relaxation time in fs
  (WPLASMAI=    0.000 imaginary part of plasma frequency in eV, 0.658/RTIME)
   DFIELD  = 0.0000000 0.0000000 0.0000000 field for delta impulse in time

 Orbital magnetization related:
   ORBITALMAG=     F  switch on orbital magnetization
   LCHIMAG   =     F  perturbation theory with respect to B field
   DQ        =  0.001000  dq finite difference perturbation B field
   LLRAUG    =     F  two centre corrections for induced B field


 ----------------------------------------------------------------------------- 
|                                                                             |
|           W    W    AA    RRRRR   N    N  II  N    N   GGGG   !!!           |
|           W    W   A  A   R    R  NN   N  II  NN   N  G    G  !!!           |
|           W    W  A    A  R    R  N N  N  II  N N  N  G       !!!           |
|           W WW W  AAAAAA  RRRRR   N  N N  II  N  N N  G  GGG   !            |
|           WW  WW  A    A  R   R   N   NN  II  N   NN  G    G                |
|           W    W  A    A  R    R  N    N  II  N    N   GGGG   !!!           |
|                                                                             |
|      One of the lattice vectors is very long (>50 A), but AMIN is rather    |
|      large. This can spoil convergence since charge sloshing might occur    |
|      along the long lattice vector. If problems with convergence are        |
|      observed, try to decrease AMIN to a smaller values (e.g. 0.01).        |
|      Note: this warning only applies if the selfconsistency cycle is used.  |
|                                                                             |
 ----------------------------------------------------------------------------- 



--------------------------------------------------------------------------------------------------------


 Static calculation
 charge density and potential remain constant during run
 non-spin polarized calculation
 Variant of blocked Davidson
 Davidson routine will perform the subspace rotation
 perform sub-space diagonalisation
    after iterative eigenvector-optimisation
 no mixing
 using additional bands          110
 reciprocal scheme for non local part
 use partial core corrections
 calculate Harris-corrections to forces   (improved forces if not selfconsistent)
 use gradient corrections 
 WARNING: stress and forces are not correct
  (second derivative of E(xc) not defined)
 use of overlap-Matrix (Vanderbilt PP)
 Gauss-broadening in eV      SIGMA  =   0.10


--------------------------------------------------------------------------------------------------------


  energy-cutoff  :      400.00
  volume of cell :      780.08
      direct lattice vectors                 reciprocal lattice vectors
     2.465499973 -2.465499973  0.000000000     0.270398164 -0.135199082 -0.135199082
     0.000000000  2.465499973 -2.465499973     0.135199082  0.135199082 -0.270398164
    42.776672050 42.776672050 42.776672050     0.007792409  0.007792409  0.007792409

  length of vectors
     3.486743500  3.486743500 74.091369370     0.331168765  0.331168765  0.013496849



 old parameters found on file WAVECAR:
  energy-cutoff  :      400.00
  volume of cell :      780.08
      direct lattice vectors                 reciprocal lattice vectors
     2.465499973 -2.465499973  0.000000000     0.270398164 -0.135199082 -0.135199082
     0.000000000  2.465499973 -2.465499973     0.135199082  0.135199082 -0.270398164
    42.776672050 42.776672050 42.776672050     0.007792409  0.007792409  0.007792409

  length of vectors


 k-points in units of 2pi/SCALE and weight: Pb_2Dslab_20L M-G-L                     
   0.13519908 -0.06759954 -0.06759954       0.005
   0.13383343 -0.06691672 -0.06691672       0.005
   0.13246779 -0.06623389 -0.06623389       0.005
   0.13110214 -0.06555107 -0.06555107       0.005
   0.12973649 -0.06486825 -0.06486825       0.005
   0.12837085 -0.06418542 -0.06418542       0.005
   0.12700520 -0.06350260 -0.06350260       0.005
   0.12563955 -0.06281978 -0.06281978       0.005
   0.12427390 -0.06213695 -0.06213695       0.005
   0.12290826 -0.06145413 -0.06145413       0.005
   0.12154261 -0.06077130 -0.06077130       0.005
   0.12017696 -0.06008848 -0.06008848       0.005
   0.11881131 -0.05940566 -0.05940566       0.005
   0.11744567 -0.05872283 -0.05872283       0.005
   0.11608002 -0.05804001 -0.05804001       0.005
   0.11471437 -0.05735719 -0.05735719       0.005
   0.11334873 -0.05667436 -0.05667436       0.005
   0.11198308 -0.05599154 -0.05599154       0.005
   0.11061743 -0.05530872 -0.05530872       0.005
   0.10925178 -0.05462589 -0.05462589       0.005
   0.10788614 -0.05394307 -0.05394307       0.005
   0.10652049 -0.05326024 -0.05326024       0.005
   0.10515484 -0.05257742 -0.05257742       0.005
   0.10378919 -0.05189460 -0.05189460       0.005
   0.10242355 -0.05121177 -0.05121177       0.005
   0.10105790 -0.05052895 -0.05052895       0.005
   0.09969225 -0.04984613 -0.04984613       0.005
   0.09832661 -0.04916330 -0.04916330       0.005
   0.09696096 -0.04848048 -0.04848048       0.005
   0.09559531 -0.04779766 -0.04779766       0.005
   0.09422966 -0.04711483 -0.04711483       0.005
   0.09286402 -0.04643201 -0.04643201       0.005
   0.09149837 -0.04574918 -0.04574918       0.005
   0.09013272 -0.04506636 -0.04506636       0.005
   0.08876707 -0.04438354 -0.04438354       0.005
   0.08740143 -0.04370071 -0.04370071       0.005
   0.08603578 -0.04301789 -0.04301789       0.005
   0.08467013 -0.04233507 -0.04233507       0.005
   0.08330448 -0.04165224 -0.04165224       0.005
   0.08193884 -0.04096942 -0.04096942       0.005
   0.08057319 -0.04028660 -0.04028660       0.005
   0.07920754 -0.03960377 -0.03960377       0.005
   0.07784190 -0.03892095 -0.03892095       0.005
   0.07647625 -0.03823812 -0.03823812       0.005
   0.07511060 -0.03755530 -0.03755530       0.005
   0.07374495 -0.03687248 -0.03687248       0.005
   0.07237931 -0.03618965 -0.03618965       0.005
   0.07101366 -0.03550683 -0.03550683       0.005
   0.06964801 -0.03482401 -0.03482401       0.005
   0.06828236 -0.03414118 -0.03414118       0.005
   0.06691672 -0.03345836 -0.03345836       0.005
   0.06555107 -0.03277554 -0.03277554       0.005
   0.06418542 -0.03209271 -0.03209271       0.005
   0.06281978 -0.03140989 -0.03140989       0.005
   0.06145413 -0.03072706 -0.03072706       0.005
   0.06008848 -0.03004424 -0.03004424       0.005
   0.05872283 -0.02936142 -0.02936142       0.005
   0.05735719 -0.02867859 -0.02867859       0.005
   0.05599154 -0.02799577 -0.02799577       0.005
   0.05462589 -0.02731295 -0.02731295       0.005
   0.05326024 -0.02663012 -0.02663012       0.005
   0.05189460 -0.02594730 -0.02594730       0.005
   0.05052895 -0.02526447 -0.02526447       0.005
   0.04916330 -0.02458165 -0.02458165       0.005
   0.04779766 -0.02389883 -0.02389883       0.005
   0.04643201 -0.02321600 -0.02321600       0.005
   0.04506636 -0.02253318 -0.02253318       0.005
   0.04370071 -0.02185036 -0.02185036       0.005
   0.04233507 -0.02116753 -0.02116753       0.005
   0.04096942 -0.02048471 -0.02048471       0.005
   0.03960377 -0.01980189 -0.01980189       0.005
   0.03823812 -0.01911906 -0.01911906       0.005
   0.03687248 -0.01843624 -0.01843624       0.005
   0.03550683 -0.01775341 -0.01775341       0.005
   0.03414118 -0.01707059 -0.01707059       0.005
   0.03277554 -0.01638777 -0.01638777       0.005
   0.03140989 -0.01570494 -0.01570494       0.005
   0.03004424 -0.01502212 -0.01502212       0.005
   0.02867859 -0.01433930 -0.01433930       0.005
   0.02731295 -0.01365647 -0.01365647       0.005
   0.02594730 -0.01297365 -0.01297365       0.005
   0.02458165 -0.01229083 -0.01229083       0.005
   0.02321600 -0.01160800 -0.01160800       0.005
   0.02185036 -0.01092518 -0.01092518       0.005
   0.02048471 -0.01024235 -0.01024235       0.005
   0.01911906 -0.00955953 -0.00955953       0.005
   0.01775341 -0.00887671 -0.00887671       0.005
   0.01638777 -0.00819388 -0.00819388       0.005
   0.01502212 -0.00751106 -0.00751106       0.005
   0.01365647 -0.00682824 -0.00682824       0.005
   0.01229083 -0.00614541 -0.00614541       0.005
   0.01092518 -0.00546259 -0.00546259       0.005
   0.00955953 -0.00477977 -0.00477977       0.005
   0.00819388 -0.00409694 -0.00409694       0.005
   0.00682824 -0.00341412 -0.00341412       0.005
   0.00546259 -0.00273129 -0.00273129       0.005
   0.00409694 -0.00204847 -0.00204847       0.005
   0.00273129 -0.00136565 -0.00136565       0.005
   0.00136565 -0.00068282 -0.00068282       0.005
   0.00000000  0.00000000  0.00000000       0.005
   0.00000000  0.00000000  0.00000000       0.005
   0.00140500 -0.00064347 -0.00064347       0.005
   0.00281001 -0.00128694 -0.00128694       0.005
   0.00421501 -0.00193040 -0.00193040       0.005
   0.00562001 -0.00257387 -0.00257387       0.005
   0.00702501 -0.00321734 -0.00321734       0.005
   0.00843002 -0.00386081 -0.00386081       0.005
   0.00983502 -0.00450428 -0.00450428       0.005
   0.01124002 -0.00514774 -0.00514774       0.005
   0.01264503 -0.00579121 -0.00579121       0.005
   0.01405003 -0.00643468 -0.00643468       0.005
   0.01545503 -0.00707815 -0.00707815       0.005
   0.01686003 -0.00772162 -0.00772162       0.005
   0.01826504 -0.00836508 -0.00836508       0.005
   0.01967004 -0.00900855 -0.00900855       0.005
   0.02107504 -0.00965202 -0.00965202       0.005
   0.02248005 -0.01029549 -0.01029549       0.005
   0.02388505 -0.01093896 -0.01093896       0.005
   0.02529005 -0.01158242 -0.01158242       0.005
   0.02669506 -0.01222589 -0.01222589       0.005
   0.02810006 -0.01286936 -0.01286936       0.005
   0.02950506 -0.01351283 -0.01351283       0.005
   0.03091006 -0.01415630 -0.01415630       0.005
   0.03231507 -0.01479977 -0.01479977       0.005
   0.03372007 -0.01544323 -0.01544323       0.005
   0.03512507 -0.01608670 -0.01608670       0.005
   0.03653008 -0.01673017 -0.01673017       0.005
   0.03793508 -0.01737364 -0.01737364       0.005
   0.03934008 -0.01801711 -0.01801711       0.005
   0.04074508 -0.01866057 -0.01866057       0.005
   0.04215009 -0.01930404 -0.01930404       0.005
   0.04355509 -0.01994751 -0.01994751       0.005
   0.04496009 -0.02059098 -0.02059098       0.005
   0.04636510 -0.02123445 -0.02123445       0.005
   0.04777010 -0.02187791 -0.02187791       0.005
   0.04917510 -0.02252138 -0.02252138       0.005
   0.05058010 -0.02316485 -0.02316485       0.005
   0.05198511 -0.02380832 -0.02380832       0.005
   0.05339011 -0.02445179 -0.02445179       0.005
   0.05479511 -0.02509525 -0.02509525       0.005
   0.05620012 -0.02573872 -0.02573872       0.005
   0.05760512 -0.02638219 -0.02638219       0.005
   0.05901012 -0.02702566 -0.02702566       0.005
   0.06041512 -0.02766913 -0.02766913       0.005
   0.06182013 -0.02831259 -0.02831259       0.005
   0.06322513 -0.02895606 -0.02895606       0.005
   0.06463013 -0.02959953 -0.02959953       0.005
   0.06603514 -0.03024300 -0.03024300       0.005
   0.06744014 -0.03088647 -0.03088647       0.005
   0.06884514 -0.03152993 -0.03152993       0.005
   0.07025014 -0.03217340 -0.03217340       0.005
   0.07165515 -0.03281687 -0.03281687       0.005
   0.07306015 -0.03346034 -0.03346034       0.005
   0.07446515 -0.03410381 -0.03410381       0.005
   0.07587016 -0.03474727 -0.03474727       0.005
   0.07727516 -0.03539074 -0.03539074       0.005
   0.07868016 -0.03603421 -0.03603421       0.005
   0.08008517 -0.03667768 -0.03667768       0.005
   0.08149017 -0.03732115 -0.03732115       0.005
   0.08289517 -0.03796461 -0.03796461       0.005
   0.08430017 -0.03860808 -0.03860808       0.005
   0.08570518 -0.03925155 -0.03925155       0.005
   0.08711018 -0.03989502 -0.03989502       0.005
   0.08851518 -0.04053849 -0.04053849       0.005
   0.08992019 -0.04118195 -0.04118195       0.005
   0.09132519 -0.04182542 -0.04182542       0.005
   0.09273019 -0.04246889 -0.04246889       0.005
   0.09413519 -0.04311236 -0.04311236       0.005
   0.09554020 -0.04375583 -0.04375583       0.005
   0.09694520 -0.04439930 -0.04439930       0.005
   0.09835020 -0.04504276 -0.04504276       0.005
   0.09975521 -0.04568623 -0.04568623       0.005
   0.10116021 -0.04632970 -0.04632970       0.005
   0.10256521 -0.04697317 -0.04697317       0.005
   0.10397021 -0.04761664 -0.04761664       0.005
   0.10537522 -0.04826010 -0.04826010       0.005
   0.10678022 -0.04890357 -0.04890357       0.005
   0.10818522 -0.04954704 -0.04954704       0.005
   0.10959023 -0.05019051 -0.05019051       0.005
   0.11099523 -0.05083398 -0.05083398       0.005
   0.11240023 -0.05147744 -0.05147744       0.005
   0.11380523 -0.05212091 -0.05212091       0.005
   0.11521024 -0.05276438 -0.05276438       0.005
   0.11661524 -0.05340785 -0.05340785       0.005
   0.11802024 -0.05405132 -0.05405132       0.005
   0.11942525 -0.05469478 -0.05469478       0.005
   0.12083025 -0.05533825 -0.05533825       0.005
   0.12223525 -0.05598172 -0.05598172       0.005
   0.12364025 -0.05662519 -0.05662519       0.005
   0.12504526 -0.05726866 -0.05726866       0.005
   0.12645026 -0.05791212 -0.05791212       0.005
   0.12785526 -0.05855559 -0.05855559       0.005
   0.12926027 -0.05919906 -0.05919906       0.005
   0.13066527 -0.05984253 -0.05984253       0.005
   0.13207027 -0.06048600 -0.06048600       0.005
   0.13347528 -0.06112946 -0.06112946       0.005
   0.13488028 -0.06177293 -0.06177293       0.005
   0.13628528 -0.06241640 -0.06241640       0.005
   0.13769028 -0.06305987 -0.06305987       0.005
   0.13909529 -0.06370334 -0.06370334       0.005

 k-points in reciprocal lattice and weights: Pb_2Dslab_20L M-G-L                     
   0.50000000  0.00000000  0.00000000       0.005
   0.49494949  0.00000000  0.00000000       0.005
   0.48989899  0.00000000  0.00000000       0.005
   0.48484848  0.00000000  0.00000000       0.005
   0.47979798  0.00000000  0.00000000       0.005
   0.47474747  0.00000000  0.00000000       0.005
   0.46969697  0.00000000  0.00000000       0.005
   0.46464646  0.00000000  0.00000000       0.005
   0.45959596  0.00000000  0.00000000       0.005
   0.45454545  0.00000000  0.00000000       0.005
   0.44949495  0.00000000  0.00000000       0.005
   0.44444444  0.00000000  0.00000000       0.005
   0.43939394  0.00000000  0.00000000       0.005
   0.43434343  0.00000000  0.00000000       0.005
   0.42929293  0.00000000  0.00000000       0.005
   0.42424242  0.00000000  0.00000000       0.005
   0.41919192  0.00000000  0.00000000       0.005
   0.41414141  0.00000000  0.00000000       0.005
   0.40909091  0.00000000  0.00000000       0.005
   0.40404040  0.00000000  0.00000000       0.005
   0.39898990  0.00000000  0.00000000       0.005
   0.39393939  0.00000000  0.00000000       0.005
   0.38888889  0.00000000  0.00000000       0.005
   0.38383838  0.00000000  0.00000000       0.005
   0.37878788  0.00000000  0.00000000       0.005
   0.37373737  0.00000000  0.00000000       0.005
   0.36868687  0.00000000  0.00000000       0.005
   0.36363636  0.00000000  0.00000000       0.005
   0.35858586  0.00000000  0.00000000       0.005
   0.35353535  0.00000000  0.00000000       0.005
   0.34848485  0.00000000  0.00000000       0.005
   0.34343434  0.00000000  0.00000000       0.005
   0.33838384  0.00000000  0.00000000       0.005
   0.33333333  0.00000000  0.00000000       0.005
   0.32828283  0.00000000  0.00000000       0.005
   0.32323232  0.00000000  0.00000000       0.005
   0.31818182  0.00000000  0.00000000       0.005
   0.31313131  0.00000000  0.00000000       0.005
   0.30808081  0.00000000  0.00000000       0.005
   0.30303030  0.00000000  0.00000000       0.005
   0.29797980  0.00000000  0.00000000       0.005
   0.29292929  0.00000000  0.00000000       0.005
   0.28787879  0.00000000  0.00000000       0.005
   0.28282828  0.00000000  0.00000000       0.005
   0.27777778  0.00000000  0.00000000       0.005
   0.27272727  0.00000000  0.00000000       0.005
   0.26767677  0.00000000  0.00000000       0.005
   0.26262626  0.00000000  0.00000000       0.005
   0.25757576  0.00000000  0.00000000       0.005
   0.25252525  0.00000000  0.00000000       0.005
   0.24747475  0.00000000  0.00000000       0.005
   0.24242424  0.00000000  0.00000000       0.005
   0.23737374  0.00000000  0.00000000       0.005
   0.23232323  0.00000000  0.00000000       0.005
   0.22727273  0.00000000  0.00000000       0.005
   0.22222222  0.00000000  0.00000000       0.005
   0.21717172  0.00000000  0.00000000       0.005
   0.21212121  0.00000000  0.00000000       0.005
   0.20707071  0.00000000  0.00000000       0.005
   0.20202020  0.00000000  0.00000000       0.005
   0.19696970  0.00000000  0.00000000       0.005
   0.19191919  0.00000000  0.00000000       0.005
   0.18686869  0.00000000  0.00000000       0.005
   0.18181818  0.00000000  0.00000000       0.005
   0.17676768  0.00000000  0.00000000       0.005
   0.17171717  0.00000000  0.00000000       0.005
   0.16666667  0.00000000  0.00000000       0.005
   0.16161616  0.00000000  0.00000000       0.005
   0.15656566  0.00000000  0.00000000       0.005
   0.15151515  0.00000000  0.00000000       0.005
   0.14646465  0.00000000  0.00000000       0.005
   0.14141414  0.00000000  0.00000000       0.005
   0.13636364  0.00000000  0.00000000       0.005
   0.13131313  0.00000000  0.00000000       0.005
   0.12626263  0.00000000  0.00000000       0.005
   0.12121212  0.00000000  0.00000000       0.005
   0.11616162  0.00000000  0.00000000       0.005
   0.11111111  0.00000000  0.00000000       0.005
   0.10606061  0.00000000  0.00000000       0.005
   0.10101010  0.00000000  0.00000000       0.005
   0.09595960  0.00000000  0.00000000       0.005
   0.09090909  0.00000000  0.00000000       0.005
   0.08585859  0.00000000  0.00000000       0.005
   0.08080808  0.00000000  0.00000000       0.005
   0.07575758  0.00000000  0.00000000       0.005
   0.07070707  0.00000000  0.00000000       0.005
   0.06565657  0.00000000  0.00000000       0.005
   0.06060606  0.00000000  0.00000000       0.005
   0.05555556  0.00000000  0.00000000       0.005
   0.05050505  0.00000000  0.00000000       0.005
   0.04545455  0.00000000  0.00000000       0.005
   0.04040404  0.00000000  0.00000000       0.005
   0.03535354  0.00000000  0.00000000       0.005
   0.03030303  0.00000000  0.00000000       0.005
   0.02525253  0.00000000  0.00000000       0.005
   0.02020202  0.00000000  0.00000000       0.005
   0.01515152  0.00000000  0.00000000       0.005
   0.01010101  0.00000000  0.00000000       0.005
   0.00505051  0.00000000  0.00000000       0.005
   0.00000000  0.00000000  0.00000000       0.005
   0.00000000  0.00000000  0.00000000       0.005
   0.00505051  0.00000000  0.00505051       0.005
   0.01010101  0.00000000  0.01010101       0.005
   0.01515152  0.00000000  0.01515152       0.005
   0.02020202  0.00000000  0.02020202       0.005
   0.02525253  0.00000000  0.02525253       0.005
   0.03030303  0.00000000  0.03030303       0.005
   0.03535354  0.00000000  0.03535354       0.005
   0.04040404  0.00000000  0.04040404       0.005
   0.04545455  0.00000000  0.04545455       0.005
   0.05050505  0.00000000  0.05050505       0.005
   0.05555556  0.00000000  0.05555556       0.005
   0.06060606  0.00000000  0.06060606       0.005
   0.06565657  0.00000000  0.06565657       0.005
   0.07070707  0.00000000  0.07070707       0.005
   0.07575758  0.00000000  0.07575758       0.005
   0.08080808  0.00000000  0.08080808       0.005
   0.08585859  0.00000000  0.08585859       0.005
   0.09090909  0.00000000  0.09090909       0.005
   0.09595960  0.00000000  0.09595960       0.005
   0.10101010  0.00000000  0.10101010       0.005
   0.10606061  0.00000000  0.10606061       0.005
   0.11111111  0.00000000  0.11111111       0.005
   0.11616162  0.00000000  0.11616162       0.005
   0.12121212  0.00000000  0.12121212       0.005
   0.12626263  0.00000000  0.12626263       0.005
   0.13131313  0.00000000  0.13131313       0.005
   0.13636364  0.00000000  0.13636364       0.005
   0.14141414  0.00000000  0.14141414       0.005
   0.14646465  0.00000000  0.14646465       0.005
   0.15151515  0.00000000  0.15151515       0.005
   0.15656566  0.00000000  0.15656566       0.005
   0.16161616  0.00000000  0.16161616       0.005
   0.16666667  0.00000000  0.16666667       0.005
   0.17171717  0.00000000  0.17171717       0.005
   0.17676768  0.00000000  0.17676768       0.005
   0.18181818  0.00000000  0.18181818       0.005
   0.18686869  0.00000000  0.18686869       0.005
   0.19191919  0.00000000  0.19191919       0.005
   0.19696970  0.00000000  0.19696970       0.005
   0.20202020  0.00000000  0.20202020       0.005
   0.20707071  0.00000000  0.20707071       0.005
   0.21212121  0.00000000  0.21212121       0.005
   0.21717172  0.00000000  0.21717172       0.005
   0.22222222  0.00000000  0.22222222       0.005
   0.22727273  0.00000000  0.22727273       0.005
   0.23232323  0.00000000  0.23232323       0.005
   0.23737374  0.00000000  0.23737374       0.005
   0.24242424  0.00000000  0.24242424       0.005
   0.24747475  0.00000000  0.24747475       0.005
   0.25252525  0.00000000  0.25252525       0.005
   0.25757576  0.00000000  0.25757576       0.005
   0.26262626  0.00000000  0.26262626       0.005
   0.26767677  0.00000000  0.26767677       0.005
   0.27272727  0.00000000  0.27272727       0.005
   0.27777778  0.00000000  0.27777778       0.005
   0.28282828  0.00000000  0.28282828       0.005
   0.28787879  0.00000000  0.28787879       0.005
   0.29292929  0.00000000  0.29292929       0.005
   0.29797980  0.00000000  0.29797980       0.005
   0.30303030  0.00000000  0.30303030       0.005
   0.30808081  0.00000000  0.30808081       0.005
   0.31313131  0.00000000  0.31313131       0.005
   0.31818182  0.00000000  0.31818182       0.005
   0.32323232  0.00000000  0.32323232       0.005
   0.32828283  0.00000000  0.32828283       0.005
   0.33333333  0.00000000  0.33333333       0.005
   0.33838384  0.00000000  0.33838384       0.005
   0.34343434  0.00000000  0.34343434       0.005
   0.34848485  0.00000000  0.34848485       0.005
   0.35353535  0.00000000  0.35353535       0.005
   0.35858586  0.00000000  0.35858586       0.005
   0.36363636  0.00000000  0.36363636       0.005
   0.36868687  0.00000000  0.36868687       0.005
   0.37373737  0.00000000  0.37373737       0.005
   0.37878788  0.00000000  0.37878788       0.005
   0.38383838  0.00000000  0.38383838       0.005
   0.38888889  0.00000000  0.38888889       0.005
   0.39393939  0.00000000  0.39393939       0.005
   0.39898990  0.00000000  0.39898990       0.005
   0.40404040  0.00000000  0.40404040       0.005
   0.40909091  0.00000000  0.40909091       0.005
   0.41414141  0.00000000  0.41414141       0.005
   0.41919192  0.00000000  0.41919192       0.005
   0.42424242  0.00000000  0.42424242       0.005
   0.42929293  0.00000000  0.42929293       0.005
   0.43434343  0.00000000  0.43434343       0.005
   0.43939394  0.00000000  0.43939394       0.005
   0.44444444  0.00000000  0.44444444       0.005
   0.44949495  0.00000000  0.44949495       0.005
   0.45454545  0.00000000  0.45454545       0.005
   0.45959596  0.00000000  0.45959596       0.005
   0.46464646  0.00000000  0.46464646       0.005
   0.46969697  0.00000000  0.46969697       0.005
   0.47474747  0.00000000  0.47474747       0.005
   0.47979798  0.00000000  0.47979798       0.005
   0.48484848  0.00000000  0.48484848       0.005
   0.48989899  0.00000000  0.48989899       0.005
   0.49494949  0.00000000  0.49494949       0.005
   0.50000000  0.00000000  0.50000000       0.005

 position of ions in fractional coordinates (direct lattice) 
   0.66666695  0.33333389  0.00100113
   0.00000027  0.00000054  0.03765430
   0.33333362  0.66666722  0.07662113
   0.66666695  0.33333389  0.11515777
   0.00000027  0.00000054  0.15370069
   0.33333362  0.66666722  0.19215792
   0.66666695  0.33333389  0.23054211
   0.00000027  0.00000054  0.26902470
   0.33333362  0.66666722  0.30732515
   0.66666695  0.33333389  0.34589073
   0.00000027  0.00000054  0.38417229
   0.33333362  0.66666722  0.42273787
   0.66666695  0.33333389  0.46103832
   0.00000027  0.00000054  0.49952092
   0.33333362  0.66666722  0.53790510
   0.66666695  0.33333389  0.57636234
   0.00000027  0.00000054  0.61490526
   0.33333362  0.66666722  0.65344190
   0.66666695  0.33333389  0.69240872
   0.00000027  0.00000054  0.72906189

 position of ions in cartesian coordinates  (Angst):
   1.68649255 -0.77900743 -0.77900949
   1.61072639  1.61072639  1.61072438
   4.09943081  4.09943075  1.63392877
   6.56973344  4.10423347  4.10423141
   6.57480453  6.57480453  6.57480252
   9.04171054  9.04171049  6.57620851
  11.50549150  9.03999153  9.03998947
  11.50798214 11.50798214 11.50798013
  13.96818139 13.96818133 11.50267935
  16.43972179 13.97422182 13.97421975
  16.43361288 16.43361288 16.43361088
  18.90515334 18.90515328 16.43965130
  21.36535253 18.89985256 18.89985050
  21.36784317 21.36784317 21.36784116
  23.83162418 23.83162413 21.36612215
  26.29853014 23.83303017 23.83302811
  26.30360123 26.30360123 26.30359922
  28.77390392 28.77390386 26.30840188
  31.26260829 28.79710831 28.79710625
  31.18684212 31.18684212 31.18684012



--------------------------------------------------------------------------------------------------------


 k-point  1 :   0.5000 0.0000 0.0000  plane waves:   14180
 k-point  2 :   0.4949 0.0000 0.0000  plane waves:   14182
 k-point  3 :   0.4899 0.0000 0.0000  plane waves:   14188
 k-point  4 :   0.4848 0.0000 0.0000  plane waves:   14190
 k-point  5 :   0.4798 0.0000 0.0000  plane waves:   14202
 k-point  6 :   0.4747 0.0000 0.0000  plane waves:   14194
 k-point  7 :   0.4697 0.0000 0.0000  plane waves:   14202
 k-point  8 :   0.4646 0.0000 0.0000  plane waves:   14202
 k-point  9 :   0.4596 0.0000 0.0000  plane waves:   14204
 k-point 10 :   0.4545 0.0000 0.0000  plane waves:   14206
 k-point 11 :   0.4495 0.0000 0.0000  plane waves:   14202
 k-point 12 :   0.4444 0.0000 0.0000  plane waves:   14210
 k-point 13 :   0.4394 0.0000 0.0000  plane waves:   14210
 k-point 14 :   0.4343 0.0000 0.0000  plane waves:   14216
 k-point 15 :   0.4293 0.0000 0.0000  plane waves:   14214
 k-point 16 :   0.4242 0.0000 0.0000  plane waves:   14200
 k-point 17 :   0.4192 0.0000 0.0000  plane waves:   14202
 k-point 18 :   0.4141 0.0000 0.0000  plane waves:   14200
 k-point 19 :   0.4091 0.0000 0.0000  plane waves:   14198
 k-point 20 :   0.4040 0.0000 0.0000  plane waves:   14188
 k-point 21 :   0.3990 0.0000 0.0000  plane waves:   14184
 k-point 22 :   0.3939 0.0000 0.0000  plane waves:   14174
 k-point 23 :   0.3889 0.0000 0.0000  plane waves:   14160
 k-point 24 :   0.3838 0.0000 0.0000  plane waves:   14158
 k-point 25 :   0.3788 0.0000 0.0000  plane waves:   14146
 k-point 26 :   0.3737 0.0000 0.0000  plane waves:   14146
 k-point 27 :   0.3687 0.0000 0.0000  plane waves:   14166
 k-point 28 :   0.3636 0.0000 0.0000  plane waves:   14154
 k-point 29 :   0.3586 0.0000 0.0000  plane waves:   14160
 k-point 30 :   0.3535 0.0000 0.0000  plane waves:   14168
 k-point 31 :   0.3485 0.0000 0.0000  plane waves:   14162
 k-point 32 :   0.3434 0.0000 0.0000  plane waves:   14170
 k-point 33 :   0.3384 0.0000 0.0000  plane waves:   14174
 k-point 34 :   0.3333 0.0000 0.0000  plane waves:   14190
 k-point 35 :   0.3283 0.0000 0.0000  plane waves:   14184
 k-point 36 :   0.3232 0.0000 0.0000  plane waves:   14186
 k-point 37 :   0.3182 0.0000 0.0000  plane waves:   14184
 k-point 38 :   0.3131 0.0000 0.0000  plane waves:   14170
 k-point 39 :   0.3081 0.0000 0.0000  plane waves:   14182
 k-point 40 :   0.3030 0.0000 0.0000  plane waves:   14190
 k-point 41 :   0.2980 0.0000 0.0000  plane waves:   14192
 k-point 42 :   0.2929 0.0000 0.0000  plane waves:   14204
 k-point 43 :   0.2879 0.0000 0.0000  plane waves:   14204
 k-point 44 :   0.2828 0.0000 0.0000  plane waves:   14198
 k-point 45 :   0.2778 0.0000 0.0000  plane waves:   14206
 k-point 46 :   0.2727 0.0000 0.0000  plane waves:   14196
 k-point 47 :   0.2677 0.0000 0.0000  plane waves:   14200
 k-point 48 :   0.2626 0.0000 0.0000  plane waves:   14210
 k-point 49 :   0.2576 0.0000 0.0000  plane waves:   14214
 k-point 50 :   0.2525 0.0000 0.0000  plane waves:   14208
 k-point 51 :   0.2475 0.0000 0.0000  plane waves:   14212
 k-point 52 :   0.2424 0.0000 0.0000  plane waves:   14216
 k-point 53 :   0.2374 0.0000 0.0000  plane waves:   14226
 k-point 54 :   0.2323 0.0000 0.0000  plane waves:   14220
 k-point 55 :   0.2273 0.0000 0.0000  plane waves:   14236
 k-point 56 :   0.2222 0.0000 0.0000  plane waves:   14226
 k-point 57 :   0.2172 0.0000 0.0000  plane waves:   14236
 k-point 58 :   0.2121 0.0000 0.0000  plane waves:   14232
 k-point 59 :   0.2071 0.0000 0.0000  plane waves:   14232
 k-point 60 :   0.2020 0.0000 0.0000  plane waves:   14226
 k-point 61 :   0.1970 0.0000 0.0000  plane waves:   14218
 k-point 62 :   0.1919 0.0000 0.0000  plane waves:   14232
 k-point 63 :   0.1869 0.0000 0.0000  plane waves:   14234
 k-point 64 :   0.1818 0.0000 0.0000  plane waves:   14232
 k-point 65 :   0.1768 0.0000 0.0000  plane waves:   14230
 k-point 66 :   0.1717 0.0000 0.0000  plane waves:   14232
 k-point 67 :   0.1667 0.0000 0.0000  plane waves:   14236
 k-point 68 :   0.1616 0.0000 0.0000  plane waves:   14230
 k-point 69 :   0.1566 0.0000 0.0000  plane waves:   14220
 k-point 70 :   0.1515 0.0000 0.0000  plane waves:   14212
 k-point 71 :   0.1465 0.0000 0.0000  plane waves:   14198
 k-point 72 :   0.1414 0.0000 0.0000  plane waves:   14202
 k-point 73 :   0.1364 0.0000 0.0000  plane waves:   14202
 k-point 74 :   0.1313 0.0000 0.0000  plane waves:   14210
 k-point 75 :   0.1263 0.0000 0.0000  plane waves:   14212
 k-point 76 :   0.1212 0.0000 0.0000  plane waves:   14218
 k-point 77 :   0.1162 0.0000 0.0000  plane waves:   14214
 k-point 78 :   0.1111 0.0000 0.0000  plane waves:   14212
 k-point 79 :   0.1061 0.0000 0.0000  plane waves:   14212
 k-point 80 :   0.1010 0.0000 0.0000  plane waves:   14202
 k-point 81 :   0.0960 0.0000 0.0000  plane waves:   14196
 k-point 82 :   0.0909 0.0000 0.0000  plane waves:   14188
 k-point 83 :   0.0859 0.0000 0.0000  plane waves:   14192
 k-point 84 :   0.0808 0.0000 0.0000  plane waves:   14196
 k-point 85 :   0.0758 0.0000 0.0000  plane waves:   14179
 k-point 86 :   0.0707 0.0000 0.0000  plane waves:   14191
 k-point 87 :   0.0657 0.0000 0.0000  plane waves:   14189
 k-point 88 :   0.0606 0.0000 0.0000  plane waves:   14187
 k-point 89 :   0.0556 0.0000 0.0000  plane waves:   14201
 k-point 90 :   0.0505 0.0000 0.0000  plane waves:   14199
 k-point 91 :   0.0455 0.0000 0.0000  plane waves:   14201
 k-point 92 :   0.0404 0.0000 0.0000  plane waves:   14201
 k-point 93 :   0.0354 0.0000 0.0000  plane waves:   14203
 k-point 94 :   0.0303 0.0000 0.0000  plane waves:   14203
 k-point 95 :   0.0253 0.0000 0.0000  plane waves:   14207
 k-point 96 :   0.0202 0.0000 0.0000  plane waves:   14203
 k-point 97 :   0.0152 0.0000 0.0000  plane waves:   14197
 k-point 98 :   0.0101 0.0000 0.0000  plane waves:   14207
 k-point 99 :   0.0051 0.0000 0.0000  plane waves:   14201
 k-point ** :   0.0000 0.0000 0.0000  plane waves:   14209
 k-point ** :   0.0000 0.0000 0.0000  plane waves:   14209
 k-point ** :   0.0051 0.0000 0.0051  plane waves:   14201
 k-point ** :   0.0101 0.0000 0.0101  plane waves:   14206
 k-point ** :   0.0152 0.0000 0.0152  plane waves:   14195
 k-point ** :   0.0202 0.0000 0.0202  plane waves:   14201
 k-point ** :   0.0253 0.0000 0.0253  plane waves:   14209
 k-point ** :   0.0303 0.0000 0.0303  plane waves:   14207
 k-point ** :   0.0354 0.0000 0.0354  plane waves:   14198
 k-point ** :   0.0404 0.0000 0.0404  plane waves:   14198
 k-point ** :   0.0455 0.0000 0.0455  plane waves:   14198
 k-point ** :   0.0505 0.0000 0.0505  plane waves:   14203
 k-point ** :   0.0556 0.0000 0.0556  plane waves:   14195
 k-point ** :   0.0606 0.0000 0.0606  plane waves:   14189
 k-point ** :   0.0657 0.0000 0.0657  plane waves:   14187
 k-point ** :   0.0707 0.0000 0.0707  plane waves:   14189
 k-point ** :   0.0758 0.0000 0.0758  plane waves:   14190
 k-point ** :   0.0808 0.0000 0.0808  plane waves:   14192
 k-point ** :   0.0859 0.0000 0.0859  plane waves:   14190
 k-point ** :   0.0909 0.0000 0.0909  plane waves:   14195
 k-point ** :   0.0960 0.0000 0.0960  plane waves:   14193
 k-point ** :   0.1010 0.0000 0.1010  plane waves:   14200
 k-point ** :   0.1061 0.0000 0.1061  plane waves:   14211
 k-point ** :   0.1111 0.0000 0.1111  plane waves:   14212
 k-point ** :   0.1162 0.0000 0.1162  plane waves:   14212
 k-point ** :   0.1212 0.0000 0.1212  plane waves:   14207
 k-point ** :   0.1263 0.0000 0.1263  plane waves:   14212
 k-point ** :   0.1313 0.0000 0.1313  plane waves:   14205
 k-point ** :   0.1364 0.0000 0.1364  plane waves:   14201
 k-point ** :   0.1414 0.0000 0.1414  plane waves:   14204
 k-point ** :   0.1465 0.0000 0.1465  plane waves:   14207
 k-point ** :   0.1515 0.0000 0.1515  plane waves:   14210
 k-point ** :   0.1566 0.0000 0.1566  plane waves:   14210
 k-point ** :   0.1616 0.0000 0.1616  plane waves:   14224
 k-point ** :   0.1667 0.0000 0.1667  plane waves:   14226
 k-point ** :   0.1717 0.0000 0.1717  plane waves:   14231
 k-point ** :   0.1768 0.0000 0.1768  plane waves:   14234
 k-point ** :   0.1818 0.0000 0.1818  plane waves:   14229
 k-point ** :   0.1869 0.0000 0.1869  plane waves:   14231
 k-point ** :   0.1919 0.0000 0.1919  plane waves:   14233
 k-point ** :   0.1970 0.0000 0.1970  plane waves:   14231
 k-point ** :   0.2020 0.0000 0.2020  plane waves:   14219
 k-point ** :   0.2071 0.0000 0.2071  plane waves:   14231
 k-point ** :   0.2121 0.0000 0.2121  plane waves:   14231
 k-point ** :   0.2172 0.0000 0.2172  plane waves:   14222
 k-point ** :   0.2222 0.0000 0.2222  plane waves:   14227
 k-point ** :   0.2273 0.0000 0.2273  plane waves:   14221
 k-point ** :   0.2323 0.0000 0.2323  plane waves:   14230
 k-point ** :   0.2374 0.0000 0.2374  plane waves:   14221
 k-point ** :   0.2424 0.0000 0.2424  plane waves:   14230
 k-point ** :   0.2475 0.0000 0.2475  plane waves:   14222
 k-point ** :   0.2525 0.0000 0.2525  plane waves:   14220
 k-point ** :   0.2576 0.0000 0.2576  plane waves:   14220
 k-point ** :   0.2626 0.0000 0.2626  plane waves:   14215
 k-point ** :   0.2677 0.0000 0.2677  plane waves:   14218
 k-point ** :   0.2727 0.0000 0.2727  plane waves:   14209
 k-point ** :   0.2778 0.0000 0.2778  plane waves:   14200
 k-point ** :   0.2828 0.0000 0.2828  plane waves:   14207
 k-point ** :   0.2879 0.0000 0.2879  plane waves:   14197
 k-point ** :   0.2929 0.0000 0.2929  plane waves:   14194
 k-point ** :   0.2980 0.0000 0.2980  plane waves:   14197
 k-point ** :   0.3030 0.0000 0.3030  plane waves:   14191
 k-point ** :   0.3081 0.0000 0.3081  plane waves:   14183
 k-point ** :   0.3131 0.0000 0.3131  plane waves:   14172
 k-point ** :   0.3182 0.0000 0.3182  plane waves:   14177
 k-point ** :   0.3232 0.0000 0.3232  plane waves:   14190
 k-point ** :   0.3283 0.0000 0.3283  plane waves:   14187
 k-point ** :   0.3333 0.0000 0.3333  plane waves:   14184
 k-point ** :   0.3384 0.0000 0.3384  plane waves:   14184
 k-point ** :   0.3434 0.0000 0.3434  plane waves:   14175
 k-point ** :   0.3485 0.0000 0.3485  plane waves:   14157
 k-point ** :   0.3535 0.0000 0.3535  plane waves:   14151
 k-point ** :   0.3586 0.0000 0.3586  plane waves:   14162
 k-point ** :   0.3636 0.0000 0.3636  plane waves:   14166
 k-point ** :   0.3687 0.0000 0.3687  plane waves:   14170
 k-point ** :   0.3737 0.0000 0.3737  plane waves:   14175
 k-point ** :   0.3788 0.0000 0.3788  plane waves:   14163
 k-point ** :   0.3838 0.0000 0.3838  plane waves:   14159
 k-point ** :   0.3889 0.0000 0.3889  plane waves:   14161
 k-point ** :   0.3939 0.0000 0.3939  plane waves:   14177
 k-point ** :   0.3990 0.0000 0.3990  plane waves:   14189
 k-point ** :   0.4040 0.0000 0.4040  plane waves:   14197
 k-point ** :   0.4091 0.0000 0.4091  plane waves:   14198
 k-point ** :   0.4141 0.0000 0.4141  plane waves:   14197
 k-point ** :   0.4192 0.0000 0.4192  plane waves:   14205
 k-point ** :   0.4242 0.0000 0.4242  plane waves:   14209
 k-point ** :   0.4293 0.0000 0.4293  plane waves:   14213
 k-point ** :   0.4343 0.0000 0.4343  plane waves:   14212
 k-point ** :   0.4394 0.0000 0.4394  plane waves:   14209
 k-point ** :   0.4444 0.0000 0.4444  plane waves:   14205
 k-point ** :   0.4495 0.0000 0.4495  plane waves:   14207
 k-point ** :   0.4545 0.0000 0.4545  plane waves:   14212
 k-point ** :   0.4596 0.0000 0.4596  plane waves:   14217
 k-point ** :   0.4646 0.0000 0.4646  plane waves:   14210
 k-point ** :   0.4697 0.0000 0.4697  plane waves:   14207
 k-point ** :   0.4747 0.0000 0.4747  plane waves:   14200
 k-point ** :   0.4798 0.0000 0.4798  plane waves:   14200
 k-point ** :   0.4848 0.0000 0.4848  plane waves:   14190
 k-point ** :   0.4899 0.0000 0.4899  plane waves:   14181
 k-point ** :   0.4949 0.0000 0.4949  plane waves:   14172
 k-point ** :   0.5000 0.0000 0.5000  plane waves:   14164

 maximum and minimum number of plane-waves per node :      2390     2343

 maximum number of plane-waves:     14236
 maximum index in each direction: 
   IXMAX=    5   IYMAX=    5   IZMAX=  120
   IXMIN=   -6   IYMIN=   -5   IZMIN= -120


 parallel 3D FFT for wavefunctions:
    minimum data exchange during FFTs selected (reduces bandwidth)
 parallel 3D FFT for charge:
    minimum data exchange during FFTs selected (reduces bandwidth)


 total amount of memory used by VASP MPI-rank0   498818. kBytes
=======================================================================

   base      :      30000. kBytes
   nonl-proj :      69451. kBytes
   fftplans  :       2271. kBytes
   grid      :       3434. kBytes
   one-center:         62. kBytes
   wavefun   :     393600. kBytes

     INWAV:  cpu time   34.6846: real time   34.6916
 initial charge density was supplied:
 number of electron     279.9999487 magnetization 
 keeping initial charge density in first step


--------------------------------------------------------------------------------------------------------


 Maximum index for augmentation-charges          801 (set IRDMAX)


--------------------------------------------------------------------------------------------------------


 First call to EWALD:  gamma=   0.193
 Maximum number of real-space cells 7x 7x 1
 Maximum number of reciprocal cells 1x 1x19

    FEWALD:  cpu time    0.0038: real time    0.0038


--------------------------------------- Iteration      1(   1)  ---------------------------------------


    POTLOK:  cpu time    0.0363: real time    0.0364
    SETDIJ:  cpu time    0.0043: real time    0.0043
     EDDAV:  cpu time  273.3723: real time  273.5907
       DOS:  cpu time    0.0284: real time    0.0285
    --------------------------------------------
      LOOP:  cpu time  273.4414: real time  273.6599

 eigenvalue-minimisations  :149610
 total energy-change (2. order) :-0.2117121E+02  (-0.3385849E+03)
 number of electron     279.9999487 magnetization 
 augmentation part      279.9999487 magnetization 

 Free energy of the ion-electron system (eV)
  ---------------------------------------------------
  alpha Z        PSCENC =       841.29232037
  Ewald energy   TEWEN  =    198660.53375098
  -Hartree energ DENC   =   -231428.55070843
  -exchange      EXHF   =         0.00000000
  -V(xc)+E(xc)   XCENC  =       757.33610584
  PAW double counting   =     30110.48299817   -29789.40751102
  entropy T*S    EENTRO =        -0.03210952
  eigenvalues    EBANDS =     -2405.05873615
  atomic energy  EATOM  =     33232.23268158
  Solvation  Ediel_sol  =         0.00000000
  ---------------------------------------------------
  free energy    TOTEN  =       -21.17120818 eV

  energy without entropy =      -21.13909866  energy(sigma->0) =      -21.15515342


--------------------------------------------------------------------------------------------------------




--------------------------------------- Iteration      1(   2)  ---------------------------------------


     EDDAV:  cpu time  226.2294: real time  226.4098
       DOS:  cpu time    0.0290: real time    0.0290
    --------------------------------------------
      LOOP:  cpu time  226.2585: real time  226.4388

 eigenvalue-minimisations  :120830
 total energy-change (2. order) :-0.5774067E+02  (-0.5718172E+02)
 number of electron     279.9999487 magnetization 
 augmentation part      279.9999487 magnetization 

 Free energy of the ion-electron system (eV)
  ---------------------------------------------------
  alpha Z        PSCENC =       841.29232037
  Ewald energy   TEWEN  =    198660.53375098
  -Hartree energ DENC   =   -231428.55070843
  -exchange      EXHF   =         0.00000000
  -V(xc)+E(xc)   XCENC  =       757.33610584
  PAW double counting   =     30110.48299817   -29789.40751102
  entropy T*S    EENTRO =        -0.03717208
  eigenvalues    EBANDS =     -2462.79434561
  atomic energy  EATOM  =     33232.23268158
  Solvation  Ediel_sol  =         0.00000000
  ---------------------------------------------------
  free energy    TOTEN  =       -78.91188020 eV

  energy without entropy =      -78.87470812  energy(sigma->0) =      -78.89329416


--------------------------------------------------------------------------------------------------------




--------------------------------------- Iteration      1(   3)  ---------------------------------------


     EDDAV:  cpu time  256.1087: real time  256.3388
       DOS:  cpu time    0.0289: real time    0.0289
    --------------------------------------------
      LOOP:  cpu time  256.1376: real time  256.3677

 eigenvalue-minimisations  :141040
 total energy-change (2. order) :-0.2048651E+01  (-0.2046567E+01)
 number of electron     279.9999487 magnetization 
 augmentation part      279.9999487 magnetization 

 Free energy of the ion-electron system (eV)
  ---------------------------------------------------
  alpha Z        PSCENC =       841.29232037
  Ewald energy   TEWEN  =    198660.53375098
  -Hartree energ DENC   =   -231428.55070843
  -exchange      EXHF   =         0.00000000
  -V(xc)+E(xc)   XCENC  =       757.33610584
  PAW double counting   =     30110.48299817   -29789.40751102
  entropy T*S    EENTRO =        -0.03857549
  eigenvalues    EBANDS =     -2464.84159333
  atomic energy  EATOM  =     33232.23268158
  Solvation  Ediel_sol  =         0.00000000
  ---------------------------------------------------
  free energy    TOTEN  =       -80.96053132 eV

  energy without entropy =      -80.92195583  energy(sigma->0) =      -80.94124358


--------------------------------------------------------------------------------------------------------




--------------------------------------- Iteration      1(   4)  ---------------------------------------


     EDDAV:  cpu time  263.4690: real time  263.7059
       DOS:  cpu time    0.0309: real time    0.0309
    --------------------------------------------
      LOOP:  cpu time  263.4999: real time  263.7368

 eigenvalue-minimisations  :144600
 total energy-change (2. order) :-0.9339730E-01  (-0.9338864E-01)
 number of electron     279.9999487 magnetization 
 augmentation part      279.9999487 magnetization 

 Free energy of the ion-electron system (eV)
  ---------------------------------------------------
  alpha Z        PSCENC =       841.29232037
  Ewald energy   TEWEN  =    198660.53375098
  -Hartree energ DENC   =   -231428.55070843
  -exchange      EXHF   =         0.00000000
  -V(xc)+E(xc)   XCENC  =       757.33610584
  PAW double counting   =     30110.48299817   -29789.40751102
  entropy T*S    EENTRO =        -0.03863824
  eigenvalues    EBANDS =     -2464.93492788
  atomic energy  EATOM  =     33232.23268158
  Solvation  Ediel_sol  =         0.00000000
  ---------------------------------------------------
  free energy    TOTEN  =       -81.05392862 eV

  energy without entropy =      -81.01529038  energy(sigma->0) =      -81.03460950


--------------------------------------------------------------------------------------------------------




--------------------------------------- Iteration      1(   5)  ---------------------------------------


     EDDAV:  cpu time  255.4487: real time  255.6610
       DOS:  cpu time    0.0297: real time    0.0297
    --------------------------------------------
      LOOP:  cpu time  255.4784: real time  255.6907

 eigenvalue-minimisations  :139860
 total energy-change (2. order) :-0.1285199E-02  (-0.1285137E-02)
 number of electron     279.9999487 magnetization 
 augmentation part      279.9999487 magnetization 

 Free energy of the ion-electron system (eV)
  ---------------------------------------------------
  alpha Z        PSCENC =       841.29232037
  Ewald energy   TEWEN  =    198660.53375098
  -Hartree energ DENC   =   -231428.55070843
  -exchange      EXHF   =         0.00000000
  -V(xc)+E(xc)   XCENC  =       757.33610584
  PAW double counting   =     30110.48299817   -29789.40751102
  entropy T*S    EENTRO =        -0.03864087
  eigenvalues    EBANDS =     -2464.93621044
  atomic energy  EATOM  =     33232.23268158
  Solvation  Ediel_sol  =         0.00000000
  ---------------------------------------------------
  free energy    TOTEN  =       -81.05521382 eV

  energy without entropy =      -81.01657295  energy(sigma->0) =      -81.03589338


--------------------------------------------------------------------------------------------------------




--------------------------------------- Iteration      1(   6)  ---------------------------------------


     EDDAV:  cpu time  248.6380: real time  248.8349
       DOS:  cpu time    0.0297: real time    0.0297
    --------------------------------------------
      LOOP:  cpu time  248.6677: real time  248.8646

 eigenvalue-minimisations  :135950
 total energy-change (2. order) :-0.3492316E-04  (-0.3492307E-04)
 number of electron     279.9999487 magnetization 
 augmentation part      279.9999487 magnetization 

 Free energy of the ion-electron system (eV)
  ---------------------------------------------------
  alpha Z        PSCENC =       841.29232037
  Ewald energy   TEWEN  =    198660.53375098
  -Hartree energ DENC   =   -231428.55070843
  -exchange      EXHF   =         0.00000000
  -V(xc)+E(xc)   XCENC  =       757.33610584
  PAW double counting   =     30110.48299817   -29789.40751102
  entropy T*S    EENTRO =        -0.03864090
  eigenvalues    EBANDS =     -2464.93624533
  atomic energy  EATOM  =     33232.23268158
  Solvation  Ediel_sol  =         0.00000000
  ---------------------------------------------------
  free energy    TOTEN  =       -81.05524874 eV

  energy without entropy =      -81.01660784  energy(sigma->0) =      -81.03592829


--------------------------------------------------------------------------------------------------------




--------------------------------------- Iteration      1(   7)  ---------------------------------------


     EDDAV:  cpu time  195.3620: real time  195.5322
       DOS:  cpu time    0.0294: real time    0.0294
    --------------------------------------------
      LOOP:  cpu time  195.3914: real time  195.5616

 eigenvalue-minimisations  :100420
 total energy-change (2. order) :-0.6387127E-06  (-0.6379027E-06)
 number of electron     279.9999487 magnetization 
 augmentation part      279.9999487 magnetization 

 Free energy of the ion-electron system (eV)
  ---------------------------------------------------
  alpha Z        PSCENC =       841.29232037
  Ewald energy   TEWEN  =    198660.53375098
  -Hartree energ DENC   =   -231428.55070843
  -exchange      EXHF   =         0.00000000
  -V(xc)+E(xc)   XCENC  =       757.33610584
  PAW double counting   =     30110.48299817   -29789.40751102
  entropy T*S    EENTRO =        -0.03864091
  eigenvalues    EBANDS =     -2464.93624597
  atomic energy  EATOM  =     33232.23268158
  Solvation  Ediel_sol  =         0.00000000
  ---------------------------------------------------
  free energy    TOTEN  =       -81.05524938 eV

  energy without entropy =      -81.01660848  energy(sigma->0) =      -81.03592893


--------------------------------------------------------------------------------------------------------




 average (electrostatic) potential at core
  the test charge radii are     1.1541
  (the norm of the test charge is              1.0000)
       1 -92.6907       2 -92.6550       3 -92.7205       4 -92.6825       5 -92.7113
       6 -92.7013       7 -92.7081       8 -92.7003       9 -92.7104      10 -92.7084
      11 -92.7083      12 -92.7101      13 -92.6998      14 -92.7074      15 -92.7006
      16 -92.7104      17 -92.6816      18 -92.7195      19 -92.6539      20 -92.6896



 E-fermi :   6.3252     XC(G=0):  -8.0753     alpha+bet : -9.5232


 k-point     1 :       0.5000    0.0000    0.0000
  band No.  band energies     occupation 
      1     -12.4316      2.00000
      2     -12.4233      2.00000
      3     -12.4151      2.00000
      4     -12.4050      2.00000
      5     -12.3955      2.00000
      6     -12.3840      2.00000
      7     -12.3695      2.00000
      8     -12.3561      2.00000
      9     -12.3446      2.00000
     10     -12.3406      2.00000
     11     -12.3376      2.00000
     12     -12.3333      2.00000
     13     -12.3299      2.00000
     14     -12.3253      2.00000
     15     -12.3166      2.00000
     16     -12.3117      2.00000
     17     -12.3064      2.00000
     18     -12.3004      2.00000
     19     -12.2945      2.00000
     20     -12.2933      2.00000
     21     -12.2908      2.00000
     22     -12.2883      2.00000
     23     -12.2826      2.00000
     24     -12.2818      2.00000
     25     -12.2766      2.00000
     26     -12.2608      2.00000
     27     -12.2587      2.00000
     28     -12.2576      2.00000
     29     -12.2538      2.00000
     30     -12.2504      2.00000
     31     -12.2504      2.00000
     32     -12.2453      2.00000
     33     -12.2435      2.00000
     34     -12.2417      2.00000
     35     -12.2367      2.00000
     36     -12.2335      2.00000
     37     -12.2328      2.00000
     38     -12.2275      2.00000
     39     -12.2245      2.00000
     40     -12.2218      2.00000
     41     -12.2214      2.00000
     42     -12.2168      2.00000
     43     -12.2109      2.00000
     44     -12.1969      2.00000
     45     -12.1954      2.00000
     46     -12.1943      2.00000
     47     -12.1788      2.00000
     48     -12.1606      2.00000
     49     -12.1428      2.00000
     50     -12.1263      2.00000
     51     -12.1067      2.00000
     52     -12.0761      2.00000
     53     -12.0734      2.00000
     54     -12.0690      2.00000
     55     -12.0625      2.00000
     56     -12.0588      2.00000
     57     -12.0540      2.00000
     58     -12.0417      2.00000
     59     -12.0388      2.00000
     60     -12.0328      2.00000
     61     -12.0242      2.00000
     62     -12.0194      2.00000
     63     -12.0160      2.00000
     64     -12.0090      2.00000
     65     -12.0051      2.00000
     66     -11.9986      2.00000
     67     -11.9958      2.00000
     68     -11.9940      2.00000
     69     -11.9925      2.00000
     70     -11.9882      2.00000
     71     -11.9872      2.00000
     72     -11.9850      2.00000
     73     -11.9817      2.00000
     74     -11.9808      2.00000
     75     -11.9789      2.00000
     76     -11.9777      2.00000
     77     -11.9770      2.00000
     78     -11.9750      2.00000
     79     -11.9740      2.00000
     80     -11.9736      2.00000
     81     -11.9726      2.00000
     82     -11.9723      2.00000
     83     -11.9679      2.00000
     84     -11.9676      2.00000
     85     -11.9669      2.00000
     86     -11.9654      2.00000
     87     -11.9620      2.00000
     88     -11.9583      2.00000
     89     -11.9548      2.00000
     90     -11.9513      2.00000
     91     -11.9479      2.00000
     92     -11.9476      2.00000
     93     -11.9418      2.00000
     94     -11.9412      2.00000
     95     -11.9407      2.00000
     96     -11.9401      2.00000
     97     -11.9330      2.00000
     98     -11.9320      2.00000
     99     -11.9166      2.00000
    100     -11.9155      2.00000
    101      -3.3204      2.00000
    102      -3.3104      2.00000
    103      -3.2983      2.00000
    104      -3.2849      2.00000
    105      -3.2693      2.00000
    106      -3.2428      2.00000
    107      -3.2024      2.00000
    108      -3.1491      2.00000
    109      -3.0856      2.00000
    110      -3.0012      2.00000
    111      -2.9095      2.00000
    112      -2.7877      2.00000
    113      -2.6623      2.00000
    114      -2.5275      2.00000
    115      -2.3911      2.00000
    116      -2.2586      2.00000
    117      -2.1345      2.00000
    118      -2.0300      2.00000
    119      -1.9482      2.00000
    120      -1.8991      2.00000
    121       0.5775      2.00000
    122       0.6464      2.00000
    123       0.7469      2.00000
    124       0.8777      2.00000
    125       1.0407      2.00000
    126       1.2370      2.00000
    127       1.4605      2.00000
    128       1.5398      2.00000
    129       1.6558      2.00000
    130       1.7034      2.00000
    131       1.8256      2.00000
    132       1.9525      2.00000
    133       2.0337      2.00000
    134       2.2083      2.00000
    135       2.2607      2.00000
    136       2.4308      2.00000
    137       2.4760      2.00000
    138       2.6053      2.00000
    139       2.6425      2.00000
    140       2.6866      2.00000
    141       5.2778      2.00000
    142       5.3017      2.00000
    143       5.4468      2.00000
    144       5.5104      2.00000
    145       5.7285      2.00000
    146       5.7884      2.00000
    147       6.0954      1.99884
    148       6.0988      1.99864
    149       6.3903      0.35752
    150       6.5351      0.00299
    151       6.6636      0.00000
    152       6.8090      0.00000
    153       6.8962      0.00000
    154       6.9444      0.00000
    155       7.0107      0.00000
    156       7.0538      0.00000
    157       7.0952      0.00000
    158       7.2047      0.00000
    159       7.3446      0.00000
    160       7.5131      0.00000
    161       7.5569      0.00000
    162       7.7072      0.00000
    163       7.9191      0.00000
    164       8.0727      0.00000
    165       8.1706      0.00000
    166       8.4195      0.00000
    167       8.5875      0.00000
    168       8.7100      0.00000
    169       8.9882      0.00000
    170       9.0908      0.00000
    171       9.2700      0.00000
    172       9.5406      0.00000
    173       9.5647      0.00000
    174       9.7916      0.00000
    175       9.9921      0.00000
    176      10.0152      0.00000
    177      10.1975      0.00000
    178      10.2439      0.00000
    179      10.3332      0.00000
    180      10.3349      0.00000
    181      10.3393      0.00000
    182      10.4304      0.00000
    183      10.4691      0.00000
    184      10.6254      0.00000
    185      10.7826      0.00000
    186      10.9260      0.00000
    187      11.0565      0.00000
    188      11.1755      0.00000
    189      11.2843      0.00000
    190      11.3928      0.00000
    191      11.5036      0.00000
    192      11.5730      0.00000
    193      11.6585      0.00000
    194      11.7599      0.00000
    195      11.8495      0.00000
    196      11.9900      0.00000
    197      12.0693      0.00000
    198      12.1474      0.00000
    199      12.2496      0.00000
    200      12.3198      0.00000
    201      12.4983      0.00000
    202      12.5668      0.00000
    203      12.7403      0.00000
    204      12.8432      0.00000
    205      12.8533      0.00000
    206      12.9582      0.00000
    207      13.1107      0.00000
    208      13.2334      0.00000
    209      13.3906      0.00000
    210      13.5095      0.00000
    211      13.6078      0.00000
    212      13.6862      0.00000
    213      13.8366      0.00000
    214      13.9519      0.00000
    215      14.2333      0.00000
    216      14.3523      0.00000
    217      14.3646      0.00000
    218      14.5645      0.00000
    219      14.5671      0.00000
    220      14.8991      0.00000
    221      15.1174      0.00000
    222      15.1978      0.00000
    223      15.2449      0.00000
    224      15.3548      0.00000
    225      15.7795      0.00000
    226      16.1066      0.00000
    227      16.1377      0.00000
    228      16.1474      0.00000
    229      16.2103      0.00000
    230      16.2440      0.00000
    231      16.2735      0.00000
    232      16.3918      0.00000
    233      16.4871      0.00000
    234      16.6903      0.00000
    235      16.7687      0.00000
    236      16.9509      0.00000
    237      16.9523      0.00000
    238      17.0973      0.00000
    239      17.1326      0.00000
    240      17.2759      0.00000
    241      17.4527      0.00000
    242      17.4620      0.00000
    243      17.6726      0.00000
    244      17.7109      0.00000
    245      17.8477      0.00000
    246      18.0731      0.00000
    247      18.2449      0.00000
    248      18.3842      0.00000
    249      18.4748      0.00000
    250      18.6308      0.00000

 k-point     2 :       0.4949    0.0000    0.0000
  band No.  band energies     occupation 
      1     -12.4316      2.00000
      2     -12.4233      2.00000
      3     -12.4151      2.00000
      4     -12.4050      2.00000
      5     -12.3955      2.00000
      6     -12.3840      2.00000
      7     -12.3695      2.00000
      8     -12.3561      2.00000
      9     -12.3446      2.00000
     10     -12.3405      2.00000
     11     -12.3376      2.00000
     12     -12.3333      2.00000
     13     -12.3298      2.00000
     14     -12.3253      2.00000
     15     -12.3166      2.00000
     16     -12.3117      2.00000
     17     -12.3064      2.00000
     18     -12.3003      2.00000
     19     -12.2945      2.00000
     20     -12.2932      2.00000
     21     -12.2908      2.00000
     22     -12.2883      2.00000
     23     -12.2826      2.00000
     24     -12.2818      2.00000
     25     -12.2766      2.00000
     26     -12.2608      2.00000
     27     -12.2587      2.00000
     28     -12.2576      2.00000
     29     -12.2538      2.00000
     30     -12.2504      2.00000
     31     -12.2504      2.00000
     32     -12.2453      2.00000
     33     -12.2434      2.00000
     34     -12.2417      2.00000
     35     -12.2367      2.00000
     36     -12.2335      2.00000
     37     -12.2328      2.00000
     38     -12.2276      2.00000
     39     -12.2244      2.00000
     40     -12.2218      2.00000
     41     -12.2215      2.00000
     42     -12.2166      2.00000
     43     -12.2109      2.00000
     44     -12.1969      2.00000
     45     -12.1953      2.00000
     46     -12.1943      2.00000
     47     -12.1788      2.00000
     48     -12.1606      2.00000
     49     -12.1428      2.00000
     50     -12.1263      2.00000
     51     -12.1067      2.00000
     52     -12.0761      2.00000
     53     -12.0734      2.00000
     54     -12.0690      2.00000
     55     -12.0626      2.00000
     56     -12.0589      2.00000
     57     -12.0540      2.00000
     58     -12.0417      2.00000
     59     -12.0388      2.00000
     60     -12.0328      2.00000
     61     -12.0242      2.00000
     62     -12.0194      2.00000
     63     -12.0160      2.00000
     64     -12.0091      2.00000
     65     -12.0051      2.00000
     66     -11.9987      2.00000
     67     -11.9958      2.00000
     68     -11.9940      2.00000
     69     -11.9925      2.00000
     70     -11.9882      2.00000
     71     -11.9872      2.00000
     72     -11.9850      2.00000
     73     -11.9817      2.00000
     74     -11.9809      2.00000
     75     -11.9790      2.00000
     76     -11.9778      2.00000
     77     -11.9770      2.00000
     78     -11.9750      2.00000
     79     -11.9741      2.00000
     80     -11.9736      2.00000
     81     -11.9726      2.00000
     82     -11.9723      2.00000
     83     -11.9679      2.00000
     84     -11.9676      2.00000
     85     -11.9669      2.00000
     86     -11.9654      2.00000
     87     -11.9620      2.00000
     88     -11.9584      2.00000
     89     -11.9548      2.00000
     90     -11.9514      2.00000
     91     -11.9479      2.00000
     92     -11.9477      2.00000
     93     -11.9418      2.00000
     94     -11.9412      2.00000
     95     -11.9408      2.00000
     96     -11.9402      2.00000
     97     -11.9331      2.00000
     98     -11.9320      2.00000
     99     -11.9167      2.00000
    100     -11.9156      2.00000
    101      -3.3322      2.00000
    102      -3.3189      2.00000
    103      -3.3042      2.00000
    104      -3.2888      2.00000
    105      -3.2710      2.00000
    106      -3.2429      2.00000
    107      -3.2019      2.00000
    108      -3.1484      2.00000
    109      -3.0848      2.00000
    110      -3.0004      2.00000
    111      -2.9087      2.00000
    112      -2.7870      2.00000
    113      -2.6617      2.00000
    114      -2.5269      2.00000
    115      -2.3906      2.00000
    116      -2.2582      2.00000
    117      -2.1341      2.00000
    118      -2.0297      2.00000
    119      -1.9480      2.00000
    120      -1.8988      2.00000
    121       0.5795      2.00000
    122       0.6484      2.00000
    123       0.7488      2.00000
    124       0.8796      2.00000
    125       1.0425      2.00000
    126       1.2388      2.00000
[...]
    110      -3.0012      2.00000
    111      -2.9095      2.00000
    112      -2.7877      2.00000
    113      -2.6623      2.00000
    114      -2.5275      2.00000
    115      -2.3911      2.00000
    116      -2.2586      2.00000
    117      -2.1345      2.00000
    118      -2.0300      2.00000
    119      -1.9482      2.00000
    120      -1.8991      2.00000
    121       0.5775      2.00000
    122       0.6464      2.00000
    123       0.7469      2.00000
    124       0.8777      2.00000
    125       1.0407      2.00000
    126       1.2371      2.00000
    127       1.4605      2.00000
    128       1.5398      2.00000
    129       1.6558      2.00000
    130       1.7034      2.00000
    131       1.8256      2.00000
    132       1.9525      2.00000
    133       2.0337      2.00000
    134       2.2083      2.00000
    135       2.2607      2.00000
    136       2.4308      2.00000
    137       2.4760      2.00000
    138       2.6053      2.00000
    139       2.6425      2.00000
    140       2.6866      2.00000
    141       5.2778      2.00000
    142       5.3017      2.00000
    143       5.4468      2.00000
    144       5.5104      2.00000
    145       5.7285      2.00000
    146       5.7884      2.00000
    147       6.0954      1.99884
    148       6.0988      1.99864
    149       6.3903      0.35745
    150       6.5351      0.00299
    151       6.6636      0.00000
    152       6.8090      0.00000
    153       6.8962      0.00000
    154       6.9445      0.00000
    155       7.0107      0.00000
    156       7.0538      0.00000
    157       7.0952      0.00000
    158       7.2047      0.00000
    159       7.3446      0.00000
    160       7.5131      0.00000
    161       7.5569      0.00000
    162       7.7072      0.00000
    163       7.9191      0.00000
    164       8.0727      0.00000
    165       8.1706      0.00000
    166       8.4195      0.00000
    167       8.5875      0.00000
    168       8.7100      0.00000
    169       8.9882      0.00000
    170       9.0908      0.00000
    171       9.2700      0.00000
    172       9.5406      0.00000
    173       9.5647      0.00000
    174       9.7916      0.00000
    175       9.9921      0.00000
    176      10.0152      0.00000
    177      10.1974      0.00000
    178      10.2439      0.00000
    179      10.3332      0.00000
    180      10.3349      0.00000
    181      10.3393      0.00000
    182      10.4304      0.00000
    183      10.4691      0.00000
    184      10.6254      0.00000
    185      10.7826      0.00000
    186      10.9260      0.00000
    187      11.0565      0.00000
    188      11.1755      0.00000
    189      11.2843      0.00000
    190      11.3928      0.00000
    191      11.5035      0.00000
    192      11.5730      0.00000
    193      11.6586      0.00000
    194      11.7594      0.00000
    195      11.8493      0.00000
    196      11.9935      0.00000
    197      12.0707      0.00000
    198      12.1434      0.00000
    199      12.2389      0.00000
    200      12.3220      0.00000
    201      12.5372      0.00000
    202      12.5647      0.00000
    203      12.7217      0.00000
    204      12.7757      0.00000
    205      12.8338      0.00000
    206      13.1056      0.00000
    207      13.1144      0.00000
    208      13.2558      0.00000
    209      13.2765      0.00000
    210      13.4079      0.00000
    211      13.6762      0.00000
    212      13.8112      0.00000
    213      13.9151      0.00000
    214      13.9343      0.00000
    215      13.9884      0.00000
    216      14.3006      0.00000
    217      14.4840      0.00000
    218      14.6279      0.00000
    219      14.6987      0.00000
    220      14.8419      0.00000
    221      14.9024      0.00000
    222      15.1331      0.00000
    223      15.3190      0.00000
    224      15.6299      0.00000
    225      15.7404      0.00000
    226      15.8597      0.00000
    227      16.0069      0.00000
    228      16.1377      0.00000
    229      16.2735      0.00000
    230      16.2959      0.00000
    231      16.4461      0.00000
    232      16.4871      0.00000
    233      16.5496      0.00000
    234      16.6863      0.00000
    235      16.6928      0.00000
    236      16.7687      0.00000
    237      16.9278      0.00000
    238      17.0973      0.00000
    239      17.1649      0.00000
    240      17.3317      0.00000
    241      17.4616      0.00000
    242      17.4778      0.00000
    243      17.6275      0.00000
    244      17.8464      0.00000
    245      17.8595      0.00000
    246      17.9976      0.00000
    247      18.2436      0.00000
    248      18.2686      0.00000
    249      18.2941      0.00000
    250      18.6774      0.00000


--------------------------------------------------------------------------------------------------------


 soft charge-density along one line, spin component           1
         0         1         2         3         4         5         6         7         8         9
 total charge-density along one line

 pseudopotential strength for first ion, spin component:           1
-14.082  -0.003   0.003  -0.003   0.000   3.635   0.002  -0.002
 -0.003 -14.082  -0.002  -0.003   0.003   0.002   3.635   0.001
  0.003  -0.002 -14.082  -0.002  -0.000  -0.002   0.001   3.636
 -0.003  -0.003  -0.002 -14.082  -0.003   0.002   0.002   0.001
  0.000   0.003  -0.000  -0.003 -14.082  -0.000  -0.002   0.000
  3.635   0.002  -0.002   0.002  -0.000   6.031  -0.001   0.001
  0.002   3.635   0.001   0.002  -0.002  -0.001   6.031  -0.001
 -0.002   0.001   3.636   0.001   0.000   0.001  -0.001   6.031
  0.002   0.002   0.001   3.635   0.002  -0.001  -0.001  -0.001
 -0.000  -0.002   0.000   0.002   3.636   0.000   0.001  -0.000
  0.000   0.000   0.000   0.000  -0.000   0.001   0.001   0.000
 -0.000  -0.000  -0.000  -0.000   0.000  -0.002  -0.002  -0.000
  0.004   0.004  -0.003  -0.000  -0.004   0.000   0.000  -0.000
 -0.000   0.004   0.005   0.004   0.000  -0.000   0.000   0.000
  0.004  -0.000  -0.003   0.004   0.004   0.000  -0.000  -0.000
  0.008   0.008  -0.005  -0.000  -0.008   0.001   0.001  -0.001
 -0.000   0.008   0.010   0.008   0.000  -0.000   0.001   0.002
  0.008  -0.000  -0.005   0.008   0.008   0.001  -0.000  -0.001
 total augmentation occupancy for first ion, spin component:           1
  2.000   0.000   0.000   0.000   0.000   0.000   0.000   0.000   0.000   0.000   0.000   0.000   0.000   0.000   0.000   0.000
  0.000   2.000   0.000   0.000   0.000   0.000   0.000   0.000   0.000   0.000   0.000   0.000   0.000   0.000   0.000   0.000
  0.000   0.000   2.000   0.000   0.000   0.000   0.000   0.000   0.000   0.000   0.000   0.000   0.000   0.000   0.000   0.000
  0.000   0.000   0.000   2.000   0.000   0.000   0.000   0.000   0.000   0.000   0.000   0.000   0.000   0.000   0.000   0.000
  0.000   0.000   0.000   0.000   2.000   0.000   0.000   0.000   0.000   0.000   0.000   0.000   0.000   0.000   0.000   0.000
  0.000   0.000   0.000   0.000   0.000   0.000   0.000   0.000   0.000   0.000   0.000   0.000   0.000   0.000   0.000   0.000
  0.000   0.000   0.000   0.000   0.000   0.000   0.000   0.000   0.000   0.000   0.000   0.000   0.000   0.000   0.000   0.000
  0.000   0.000   0.000   0.000   0.000   0.000   0.000   0.000   0.000   0.000   0.000   0.000   0.000   0.000   0.000   0.000
  0.000   0.000   0.000   0.000   0.000   0.000   0.000   0.000   0.000   0.000   0.000   0.000   0.000   0.000   0.000   0.000
  0.000   0.000   0.000   0.000   0.000   0.000   0.000   0.000   0.000   0.000   0.000   0.000   0.000   0.000   0.000   0.000
  0.000   0.000   0.000   0.000   0.000   0.000   0.000   0.000   0.000   0.000   2.000   0.000   0.000   0.000   0.000   0.000
  0.000   0.000   0.000   0.000   0.000   0.000   0.000   0.000   0.000   0.000   0.000   0.000   0.000   0.000   0.000   0.000
  0.000   0.000   0.000   0.000   0.000   0.000   0.000   0.000   0.000   0.000   0.000   0.000   0.667   0.000   0.000   0.000
  0.000   0.000   0.000   0.000   0.000   0.000   0.000   0.000   0.000   0.000   0.000   0.000   0.000   0.667   0.000   0.000
  0.000   0.000   0.000   0.000   0.000   0.000   0.000   0.000   0.000   0.000   0.000   0.000   0.000   0.000   0.667   0.000
  0.000   0.000   0.000   0.000   0.000   0.000   0.000   0.000   0.000   0.000   0.000   0.000   0.000   0.000   0.000   0.000
  0.000   0.000   0.000   0.000   0.000   0.000   0.000   0.000   0.000   0.000   0.000   0.000   0.000   0.000   0.000   0.000
  0.000   0.000   0.000   0.000   0.000   0.000   0.000   0.000   0.000   0.000   0.000   0.000   0.000   0.000   0.000   0.000


------------------------ aborting loop because EDIFF is reached ----------------------------------------





 total charge     

# of ion       s       p       d       tot
------------------------------------------
    1        1.346   0.815   9.802  11.963
    2        1.374   0.706   9.811  11.891
    3        1.359   0.763   9.809  11.930
    4        1.370   0.720   9.810  11.900
    5        1.362   0.754   9.809  11.926
    6        1.367   0.732   9.810  11.910
    7        1.364   0.750   9.809  11.923
    8        1.366   0.738   9.810  11.914
    9        1.365   0.745   9.810  11.920
   10        1.366   0.740   9.810  11.916
   11        1.366   0.740   9.810  11.916
   12        1.365   0.745   9.810  11.920
   13        1.366   0.738   9.810  11.914
   14        1.364   0.750   9.809  11.923
   15        1.367   0.732   9.810  11.910
   16        1.362   0.754   9.809  11.926
   17        1.369   0.720   9.810  11.900
   18        1.359   0.762   9.809  11.930
   19        1.374   0.705   9.811  11.891
   20        1.346   0.815   9.802  11.963
--------------------------------------------------
tot         27.276  14.925 196.182 238.383

    CHARGE:  cpu time    2.9079: real time    2.9089
    FORLOC:  cpu time    0.0022: real time    0.0022
    FORNL :  cpu time   81.9575: real time   81.9760
    STRESS:  cpu time  153.2162: real time  153.2507
    FORCOR:  cpu time    0.0321: real time    0.0321
    FORHAR:  cpu time    0.0098: real time    0.0097
    OFIELD:  cpu time    0.0000: real time    0.0000

  FORCE on cell =-STRESS in cart. coord.  units (eV):
  Direction    XX          YY          ZZ          XY          YZ          ZX
  --------------------------------------------------------------------------------------
  Alpha Z   841.29232   841.29232   841.29232
  Ewald   66220.14858 66220.14858 66220.14858************************************
  Hartree 76163.77401 76163.77401 76163.77401************************************
  E(xc)   -1332.96540 -1332.96537 -1332.96539    -0.79200    -0.79200    -0.79197
  Local  ************************************297150.73085297150.73091297150.73012
  n-local  1402.79767  1299.27682  1299.27765     2.14598   120.06847     2.15340
  augment  2481.49227  2481.49337  2481.49224    -6.87827    -6.87828    -6.87717
  Kinetic  2967.30402  2769.32836  2769.32801    -0.56027   200.29874    -0.55952
  Fock        0.00000     0.00000     0.00000     0.00000     0.00000     0.00000
  -------------------------------------------------------------------------------------
  Total     -44.73631   -44.73631   -44.73631    30.30884    30.30884    30.30884
  in kB     -91.88243   -91.88243   -91.88243    62.25033    62.25033    62.25033
  external pressure =      -91.88 kB  Pullay stress =        0.00 kB


 VOLUME and BASIS-vectors are now :
 -----------------------------------------------------------------------------
  energy-cutoff  :      400.00
  volume of cell :      780.08
      direct lattice vectors                 reciprocal lattice vectors
     2.465499973 -2.465499973  0.000000000     0.270398164 -0.135199082 -0.135199082
     0.000000000  2.465499973 -2.465499973     0.135199082  0.135199082 -0.270398164
    42.776672050 42.776672050 42.776672050     0.007792409  0.007792409  0.007792409

  length of vectors
     3.486743500  3.486743500 74.091369370     0.331168765  0.331168765  0.013496849


 FORCES acting on ions
    electron-ion (+dipol)            ewald-force                    non-local-force                 convergence-correction
 -----------------------------------------------------------------------------------------------
   0.427E+04 0.427E+04 0.427E+04   -.431E+04 -.431E+04 -.431E+04   0.143E+01 0.143E+01 0.143E+01   0.365E+02 0.365E+02 0.365E+02
   0.377E+04 0.377E+04 0.377E+04   -.380E+04 -.380E+04 -.380E+04   -.742E+00 -.742E+00 -.742E+00   0.307E+02 0.307E+02 0.307E+02
   0.334E+04 0.334E+04 0.334E+04   -.337E+04 -.337E+04 -.337E+04   0.216E+00 0.216E+00 0.216E+00   0.262E+02 0.262E+02 0.262E+02
   0.290E+04 0.290E+04 0.290E+04   -.292E+04 -.292E+04 -.292E+04   0.390E-01 0.390E-01 0.390E-01   0.237E+02 0.237E+02 0.237E+02
   0.246E+04 0.246E+04 0.246E+04   -.248E+04 -.248E+04 -.248E+04   -.102E+00 -.102E+00 -.102E+00   0.190E+02 0.190E+02 0.191E+02
   0.201E+04 0.201E+04 0.201E+04   -.203E+04 -.203E+04 -.203E+04   0.149E+00 0.149E+00 0.149E+00   0.161E+02 0.161E+02 0.161E+02
   0.156E+04 0.156E+04 0.156E+04   -.158E+04 -.158E+04 -.158E+04   -.183E+00 -.183E+00 -.183E+00   0.122E+02 0.122E+02 0.122E+02
   0.112E+04 0.112E+04 0.112E+04   -.113E+04 -.113E+04 -.113E+04   0.222E+00 0.222E+00 0.222E+00   0.912E+01 0.911E+01 0.912E+01
   0.668E+03 0.668E+03 0.668E+03   -.673E+03 -.673E+03 -.673E+03   -.228E+00 -.228E+00 -.228E+00   0.505E+01 0.505E+01 0.505E+01
   0.225E+03 0.225E+03 0.225E+03   -.228E+03 -.228E+03 -.228E+03   0.247E+00 0.247E+00 0.247E+00   0.211E+01 0.211E+01 0.211E+01
   -.225E+03 -.225E+03 -.225E+03   0.228E+03 0.228E+03 0.228E+03   -.247E+00 -.247E+00 -.247E+00   -.211E+01 -.211E+01 -.211E+01
   -.668E+03 -.668E+03 -.668E+03   0.673E+03 0.673E+03 0.673E+03   0.228E+00 0.228E+00 0.228E+00   -.505E+01 -.505E+01 -.505E+01
   -.112E+04 -.112E+04 -.112E+04   0.113E+04 0.113E+04 0.113E+04   -.222E+00 -.222E+00 -.222E+00   -.912E+01 -.912E+01 -.911E+01
   -.156E+04 -.156E+04 -.156E+04   0.158E+04 0.158E+04 0.158E+04   0.183E+00 0.183E+00 0.183E+00   -.122E+02 -.122E+02 -.122E+02
   -.201E+04 -.201E+04 -.201E+04   0.203E+04 0.203E+04 0.203E+04   -.149E+00 -.149E+00 -.149E+00   -.161E+02 -.161E+02 -.161E+02
   -.246E+04 -.246E+04 -.246E+04   0.248E+04 0.248E+04 0.248E+04   0.102E+00 0.102E+00 0.102E+00   -.190E+02 -.190E+02 -.190E+02
   -.290E+04 -.290E+04 -.290E+04   0.292E+04 0.292E+04 0.292E+04   -.390E-01 -.390E-01 -.390E-01   -.237E+02 -.237E+02 -.237E+02
   -.334E+04 -.334E+04 -.334E+04   0.337E+04 0.337E+04 0.337E+04   -.216E+00 -.216E+00 -.216E+00   -.262E+02 -.262E+02 -.262E+02
   -.377E+04 -.377E+04 -.377E+04   0.380E+04 0.380E+04 0.380E+04   0.742E+00 0.742E+00 0.742E+00   -.307E+02 -.307E+02 -.307E+02
   -.427E+04 -.427E+04 -.427E+04   0.431E+04 0.431E+04 0.431E+04   -.143E+01 -.143E+01 -.143E+01   -.365E+02 -.365E+02 -.365E+02
 -----------------------------------------------------------------------------------------------
   -.992E-02 -.970E-02 0.196E-01   -.819E-11 0.546E-11 0.637E-11   -.111E-14 -.666E-15 -.111E-14   0.167E-01 0.127E-01 0.290E-01


 POSITION                                       TOTAL-FORCE (eV/Angst)
 -----------------------------------------------------------------------------------
      1.68649     -0.77901     -0.77901        -1.454103     -1.454103     -1.454103
      1.61073      1.61073      1.61072         0.279730      0.279730      0.279730
      4.09943      4.09943      1.63393        -0.005750     -0.005750     -0.005750
      6.56973      4.10423      4.10423        -0.006914     -0.006914     -0.006914
      6.57480      6.57480      6.57480        -0.038459     -0.038459     -0.038459
      9.04171      9.04171      6.57621         0.009341      0.009341      0.009341
     11.50549      9.03999      9.03999        -0.011809     -0.011809     -0.011809
     11.50798     11.50798     11.50798         0.002566      0.002566      0.002566
     13.96818     13.96818     11.50268         0.014456      0.014456      0.014456
     16.43972     13.97422     13.97422        -0.013212     -0.013212     -0.013212
     16.43361     16.43361     16.43361         0.013212      0.013212      0.013212
     18.90515     18.90515     16.43965        -0.014456     -0.014456     -0.014456
     21.36535     18.89985     18.89985        -0.002566     -0.002566     -0.002566
     21.36784     21.36784     21.36784         0.011809      0.011809      0.011809
     23.83162     23.83162     21.36612        -0.009341     -0.009341     -0.009341
     26.29853     23.83303     23.83303         0.038459      0.038459      0.038459
     26.30360     26.30360     26.30360         0.006914      0.006914      0.006914
     28.77390     28.77390     26.30840         0.005750      0.005750      0.005750
     31.26261     28.79711     28.79711        -0.279730     -0.279730     -0.279730
     31.18684     31.18684     31.18684         1.454103      1.454103      1.454103
 -----------------------------------------------------------------------------------
    total drift:                                0.006811      0.003001      0.048565


--------------------------------------------------------------------------------------------------------



  FREE ENERGIE OF THE ION-ELECTRON SYSTEM (eV)
  ---------------------------------------------------
  free  energy   TOTEN  =       -81.05524938 eV

  energy  without entropy=      -81.01660848  energy(sigma->0) =      -81.03592893



--------------------------------------------------------------------------------------------------------


    POTLOK:  cpu time    0.0350: real time    0.0351


--------------------------------------------------------------------------------------------------------


 writing wavefunctions
     LOOP+:  cpu time 2009.8289: real time 2014.6909
    4ORBIT:  cpu time    0.0000: real time    0.0000



 total charge     

# of ion       s       p       d       tot
------------------------------------------
    1        1.346   0.815   9.802  11.963
    2        1.374   0.706   9.811  11.891
    3        1.359   0.763   9.809  11.930
    4        1.370   0.720   9.810  11.900
    5        1.362   0.754   9.809  11.926
    6        1.367   0.732   9.810  11.910
    7        1.364   0.750   9.809  11.923
    8        1.366   0.738   9.810  11.914
    9        1.365   0.745   9.810  11.920
   10        1.366   0.740   9.810  11.916
   11        1.366   0.740   9.810  11.916
   12        1.365   0.745   9.810  11.920
   13        1.366   0.738   9.810  11.914
   14        1.364   0.750   9.809  11.923
   15        1.367   0.732   9.810  11.910
   16        1.362   0.754   9.809  11.926
   17        1.369   0.720   9.810  11.900
   18        1.359   0.762   9.809  11.930
   19        1.374   0.705   9.811  11.891
   20        1.346   0.815   9.802  11.963
--------------------------------------------------
tot         27.276  14.925 196.182 238.383


 total amount of memory used by VASP MPI-rank0   498818. kBytes
=======================================================================

   base      :      30000. kBytes
   nonl-proj :      69451. kBytes
   fftplans  :       2271. kBytes
   grid      :       3434. kBytes
   one-center:         62. kBytes
   wavefun   :     393600. kBytes

  
  
 General timing and accounting informations for this job:
 ========================================================
  
                  Total CPU time used (sec):     2090.669
                            User time (sec):     2032.348
                          System time (sec):       58.322
                         Elapsed time (sec):     2095.933
  
                   Maximum memory used (kb):      599412.
                   Average memory used (kb):           0.
  
                          Minor page faults:       198415
                          Major page faults:            9
                 Voluntary context switches:         1476
