  20  20   0   0
  0.3900392E+02  0.3486744E-09  0.3486744E-09  0.7409137E-08  0.5000000E-15
   1.0000000000000000E-004
  CAR 
 Pb_2Dslab_20L                           
     20.91633834    -14.01509662  301      4.86526645      1.00000000
    -14.015  0.0000E+00  0.0000E+00
    -13.899  0.0000E+00  0.0000E+00
    -13.782  0.0000E+00  0.0000E+00
    -13.666  0.0000E+00  0.0000E+00
    -13.549  0.0000E+00  0.0000E+00
    -13.433  0.0000E+00  0.0000E+00
    -13.316 -0.1083E-33 -0.1261E-34
    -13.200 -0.2961E-25 -0.3447E-26
    -13.084 -0.5356E-18 -0.6236E-19
    -12.967 -0.6367E-12 -0.7414E-13
    -12.851 -0.5270E-07 -0.6137E-08
    -12.734 -0.3009E-03 -0.3504E-04
    -12.618 -0.1215E+00 -0.1419E-01
    -12.501 -0.3527E+01 -0.4248E+00
    -12.385  0.1483E+02  0.1302E+01
    -12.269  0.2975E+03  0.3595E+02
    -12.152  0.5271E+03  0.9732E+02
    -12.036  0.4743E+03  0.1525E+03
    -11.919  0.3855E+03  0.1974E+03
    -11.803  0.2809E+02  0.2007E+03
    -11.686 -0.5980E+01  0.2000E+03
    -11.570 -0.8638E-01  0.2000E+03
    -11.453 -0.7565E-04  0.2000E+03
    -11.337 -0.4612E-08  0.2000E+03
    -11.221 -0.1750E-13  0.2000E+03
    -11.104  0.0000E+00  0.2000E+03
    -10.988  0.0000E+00  0.2000E+03
    -10.871  0.0000E+00  0.2000E+03
    -10.755  0.0000E+00  0.2000E+03
    -10.638  0.0000E+00  0.2000E+03
    -10.522  0.0000E+00  0.2000E+03
    -10.406  0.0000E+00  0.2000E+03
    -10.289  0.0000E+00  0.2000E+03
    -10.173  0.0000E+00  0.2000E+03
    -10.056  0.0000E+00  0.2000E+03
     -9.940  0.0000E+00  0.2000E+03
     -9.823  0.0000E+00  0.2000E+03
     -9.707  0.0000E+00  0.2000E+03
     -9.590  0.0000E+00  0.2000E+03
     -9.474  0.0000E+00  0.2000E+03
     -9.358  0.0000E+00  0.2000E+03
     -9.241  0.0000E+00  0.2000E+03
     -9.125  0.0000E+00  0.2000E+03
     -9.008  0.0000E+00  0.2000E+03
     -8.892  0.0000E+00  0.2000E+03
     -8.775  0.0000E+00  0.2000E+03
     -8.659  0.0000E+00  0.2000E+03
     -8.543  0.0000E+00  0.2000E+03
     -8.426  0.0000E+00  0.2000E+03
     -8.310  0.0000E+00  0.2000E+03
     -8.193  0.0000E+00  0.2000E+03
     -8.077  0.0000E+00  0.2000E+03
     -7.960  0.0000E+00  0.2000E+03
     -7.844 -0.8013E-32  0.2000E+03
     -7.727 -0.6415E-24  0.2000E+03
     -7.611 -0.3460E-17  0.2000E+03
     -7.495 -0.1229E-11  0.2000E+03
     -7.378 -0.3091E-07  0.2000E+03
     -7.262 -0.5341E-04  0.2000E+03
     -7.145 -0.5847E-02  0.2000E+03
     -7.029 -0.4300E-03  0.2000E+03
     -6.912  0.5249E+00  0.2001E+03
     -6.796  0.1379E+01  0.2002E+03
     -6.679  0.1910E+01  0.2004E+03
     -6.563  0.2364E+01  0.2007E+03
     -6.447  0.2627E+01  0.2010E+03
     -6.330  0.2994E+01  0.2014E+03
     -6.214  0.3197E+01  0.2017E+03
     -6.097  0.3628E+01  0.2022E+03
     -5.981  0.3516E+01  0.2026E+03
     -5.864  0.4169E+01  0.2031E+03
     -5.748  0.4121E+01  0.2035E+03
     -5.632  0.4173E+01  0.2040E+03
     -5.515  0.5052E+01  0.2046E+03
     -5.399  0.4426E+01  0.2051E+03
     -5.282  0.5088E+01  0.2057E+03
     -5.166  0.5326E+01  0.2063E+03
     -5.049  0.5442E+01  0.2070E+03
     -4.933  0.5300E+01  0.2076E+03
     -4.816  0.6258E+01  0.2083E+03
     -4.700  0.6115E+01  0.2090E+03
     -4.584  0.5985E+01  0.2097E+03
     -4.467  0.6684E+01  0.2105E+03
     -4.351  0.7194E+01  0.2113E+03
     -4.234  0.7030E+01  0.2122E+03
     -4.118  0.6855E+01  0.2130E+03
     -4.001  0.8562E+01  0.2140E+03
     -3.885  0.8006E+01  0.2149E+03
     -3.769  0.8529E+01  0.2159E+03
     -3.652  0.8817E+01  0.2169E+03
     -3.536  0.1040E+02  0.2181E+03
     -3.419  0.1072E+02  0.2194E+03
     -3.303  0.1159E+02  0.2207E+03
     -3.186  0.1383E+02  0.2223E+03
     -3.070  0.1364E+02  0.2239E+03
     -2.953  0.1212E+02  0.2253E+03
     -2.837  0.1281E+02  0.2268E+03
     -2.721  0.1278E+02  0.2283E+03
     -2.604  0.1153E+02  0.2297E+03
     -2.488  0.1240E+02  0.2311E+03
     -2.371  0.1195E+02  0.2325E+03
     -2.255  0.1198E+02  0.2339E+03
     -2.138  0.1252E+02  0.2353E+03
     -2.022  0.1339E+02  0.2369E+03
     -1.906  0.1551E+02  0.2387E+03
     -1.789  0.1055E+02  0.2399E+03
     -1.673  0.6722E+00  0.2400E+03
     -1.556 -0.1519E+00  0.2400E+03
     -1.440 -0.2839E-02  0.2400E+03
     -1.323 -0.3282E-05  0.2400E+03
     -1.207 -0.2492E-09  0.2400E+03
     -1.090 -0.1281E-14  0.2400E+03
     -0.974  0.0000E+00  0.2400E+03
     -0.858  0.0000E+00  0.2400E+03
     -0.741  0.0000E+00  0.2400E+03
     -0.625  0.0000E+00  0.2400E+03
     -0.508  0.0000E+00  0.2400E+03
     -0.392  0.0000E+00  0.2400E+03
     -0.275 -0.1179E-33  0.2400E+03
     -0.159 -0.2194E-25  0.2400E+03
     -0.043 -0.2667E-18  0.2400E+03
      0.074 -0.2029E-12  0.2400E+03
      0.190 -0.1003E-07  0.2400E+03
      0.307 -0.3034E-04  0.2400E+03
      0.423 -0.5092E-02  0.2400E+03
      0.540 -0.1151E-01  0.2400E+03
      0.656  0.5099E+00  0.2401E+03
      0.773  0.1606E+01  0.2402E+03
      0.889  0.2202E+01  0.2405E+03
      1.005  0.3071E+01  0.2409E+03
      1.122  0.3450E+01  0.2413E+03
      1.238  0.3866E+01  0.2417E+03
      1.355  0.4870E+01  0.2423E+03
      1.471  0.4926E+01  0.2429E+03
      1.588  0.5491E+01  0.2435E+03
      1.704  0.7256E+01  0.2443E+03
      1.820  0.8450E+01  0.2453E+03
      1.937  0.8787E+01  0.2463E+03
      2.053  0.9832E+01  0.2475E+03
      2.170  0.1244E+02  0.2489E+03
      2.286  0.1292E+02  0.2504E+03
      2.403  0.1539E+02  0.2522E+03
      2.519  0.1721E+02  0.2542E+03
      2.636  0.1632E+02  0.2561E+03
      2.752  0.1516E+02  0.2579E+03
      2.868  0.1600E+02  0.2598E+03
      2.985  0.1406E+02  0.2614E+03
      3.101  0.1235E+02  0.2628E+03
      3.218  0.1050E+02  0.2641E+03
      3.334  0.8826E+01  0.2651E+03
      3.451  0.9556E+01  0.2662E+03
      3.567  0.8662E+01  0.2672E+03
      3.683  0.8923E+01  0.2682E+03
      3.800  0.9996E+01  0.2694E+03
      3.916  0.1023E+02  0.2706E+03
      4.033  0.9311E+01  0.2717E+03
      4.149  0.9437E+01  0.2728E+03
      4.266  0.1004E+02  0.2740E+03
      4.382  0.1000E+02  0.2751E+03
      4.499  0.1095E+02  0.2764E+03
      4.615  0.9806E+01  0.2775E+03
      4.731  0.9851E+01  0.2787E+03
      4.848  0.9893E+01  0.2798E+03
      4.964  0.9700E+01  0.2810E+03
      5.081  0.1051E+02  0.2822E+03
      5.197  0.1190E+02  0.2836E+03
      5.314  0.1039E+02  0.2848E+03
      5.430  0.8873E+01  0.2858E+03
      5.547  0.1129E+02  0.2871E+03
      5.663  0.1241E+02  0.2886E+03
      5.779  0.1329E+02  0.2901E+03
      5.896  0.1154E+02  0.2915E+03
      6.012  0.1071E+02  0.2927E+03
      6.129  0.1200E+02  0.2941E+03
      6.245  0.1337E+02  0.2957E+03
      6.362  0.1286E+02  0.2972E+03
      6.478  0.1406E+02  0.2988E+03
      6.594  0.1358E+02  0.3004E+03
      6.711  0.1409E+02  0.3020E+03
      6.827  0.1490E+02  0.3038E+03
      6.944  0.1377E+02  0.3054E+03
      7.060  0.1627E+02  0.3073E+03
      7.177  0.1801E+02  0.3094E+03
      7.293  0.1634E+02  0.3113E+03
      7.410  0.1445E+02  0.3129E+03
      7.526  0.1346E+02  0.3145E+03
      7.642  0.1516E+02  0.3163E+03
      7.759  0.1669E+02  0.3182E+03
      7.875  0.1341E+02  0.3198E+03
      7.992  0.1557E+02  0.3216E+03
      8.108  0.1382E+02  0.3232E+03
      8.225  0.1411E+02  0.3248E+03
      8.341  0.1486E+02  0.3266E+03
      8.457  0.1277E+02  0.3281E+03
      8.574  0.1374E+02  0.3297E+03
      8.690  0.1421E+02  0.3313E+03
      8.807  0.1318E+02  0.3328E+03
      8.923  0.1473E+02  0.3346E+03
      9.040  0.1271E+02  0.3360E+03
      9.156  0.1242E+02  0.3375E+03
      9.273  0.1313E+02  0.3390E+03
      9.389  0.1382E+02  0.3406E+03
      9.505  0.1269E+02  0.3421E+03
      9.622  0.1202E+02  0.3435E+03
      9.738  0.1281E+02  0.3450E+03
      9.855  0.1220E+02  0.3464E+03
      9.971  0.1270E+02  0.3479E+03
     10.088  0.1197E+02  0.3493E+03
     10.204  0.1262E+02  0.3508E+03
     10.320  0.1071E+02  0.3520E+03
     10.437  0.1246E+02  0.3535E+03
     10.553  0.1213E+02  0.3549E+03
     10.670  0.1210E+02  0.3563E+03
     10.786  0.1287E+02  0.3578E+03
     10.903  0.1265E+02  0.3592E+03
     11.019  0.1165E+02  0.3606E+03
     11.136  0.1103E+02  0.3619E+03
     11.252  0.1216E+02  0.3633E+03
     11.368  0.1212E+02  0.3647E+03
     11.485  0.1115E+02  0.3660E+03
     11.601  0.1326E+02  0.3676E+03
     11.718  0.1314E+02  0.3691E+03
     11.834  0.1302E+02  0.3706E+03
     11.951  0.1459E+02  0.3723E+03
     12.067  0.1562E+02  0.3741E+03
     12.183  0.1656E+02  0.3760E+03
     12.300  0.1649E+02  0.3780E+03
     12.416  0.1479E+02  0.3797E+03
     12.533  0.1388E+02  0.3813E+03
     12.649  0.1581E+02  0.3831E+03
     12.766  0.1615E+02  0.3850E+03
     12.882  0.1424E+02  0.3867E+03
     12.999  0.1823E+02  0.3888E+03
     13.115  0.1816E+02  0.3909E+03
     13.231  0.1901E+02  0.3931E+03
     13.348  0.2103E+02  0.3956E+03
     13.464  0.2173E+02  0.3981E+03
     13.581  0.2169E+02  0.4006E+03
     13.697  0.2124E+02  0.4031E+03
     13.814  0.2174E+02  0.4056E+03
     13.930  0.2209E+02  0.4082E+03
     14.046  0.2087E+02  0.4106E+03
     14.163  0.2066E+02  0.4130E+03
     14.279  0.2005E+02  0.4154E+03
     14.396  0.1852E+02  0.4175E+03
     14.512  0.1579E+02  0.4194E+03
     14.629  0.1628E+02  0.4213E+03
     14.745  0.1339E+02  0.4228E+03
     14.862  0.1214E+02  0.4242E+03
     14.978  0.1347E+02  0.4258E+03
     15.094  0.1673E+02  0.4278E+03
     15.211  0.1621E+02  0.4297E+03
     15.327  0.1609E+02  0.4315E+03
     15.444  0.1613E+02  0.4334E+03
     15.560  0.1642E+02  0.4353E+03
     15.677  0.1659E+02  0.4372E+03
     15.793  0.1766E+02  0.4393E+03
     15.909  0.1901E+02  0.4415E+03
     16.026  0.1572E+02  0.4433E+03
     16.142  0.1793E+02  0.4454E+03
     16.259  0.2141E+02  0.4479E+03
     16.375  0.2007E+02  0.4503E+03
     16.492  0.1935E+02  0.4525E+03
     16.608  0.1962E+02  0.4548E+03
     16.725  0.1848E+02  0.4570E+03
     16.841  0.1820E+02  0.4591E+03
     16.957  0.2085E+02  0.4615E+03
     17.074  0.2155E+02  0.4640E+03
     17.190  0.2593E+02  0.4670E+03
     17.307  0.2488E+02  0.4699E+03
     17.423  0.2523E+02  0.4729E+03
     17.540  0.2317E+02  0.4756E+03
     17.656  0.2356E+02  0.4783E+03
     17.773  0.2346E+02  0.4810E+03
     17.889  0.2478E+02  0.4839E+03
     18.005  0.2368E+02  0.4867E+03
     18.122  0.2352E+02  0.4894E+03
     18.238  0.2200E+02  0.4920E+03
     18.355  0.1947E+02  0.4942E+03
     18.471  0.1506E+02  0.4960E+03
     18.588  0.1211E+02  0.4974E+03
     18.704  0.9267E+01  0.4985E+03
     18.820  0.6654E+01  0.4993E+03
     18.937  0.3540E+01  0.4997E+03
     19.053  0.1440E+01  0.4998E+03
     19.170  0.6087E+00  0.4999E+03
     19.286  0.4018E+00  0.5000E+03
     19.403  0.3281E+00  0.5000E+03
     19.519 -0.4182E-02  0.5000E+03
     19.636 -0.2999E-02  0.5000E+03
     19.752 -0.1374E-04  0.5000E+03
     19.868 -0.3561E-08  0.5000E+03
     19.985 -0.5825E-13  0.5000E+03
     20.101  0.0000E+00  0.5000E+03
     20.218  0.0000E+00  0.5000E+03
     20.334  0.0000E+00  0.5000E+03
     20.451  0.0000E+00  0.5000E+03
     20.567  0.0000E+00  0.5000E+03
     20.683  0.0000E+00  0.5000E+03
     20.800  0.0000E+00  0.5000E+03
     20.916  0.0000E+00  0.5000E+03
