   20   20    1    1
  0.3900392E+02  0.3486744E-09  0.3486744E-09  0.7409137E-08  0.5000000E-15
   1.0000000000000000E-004
  CAR 
 Pb_2Dslab_20L                           
    280     65    250

  0.3742002E-15  0.3742002E-15  0.1262379E-14  0.1600000E-02
    1      -12.298978   1.000000
    2      -12.298800   1.000000
    3      -12.291500   1.000000
    4      -12.290683   1.000000
    5      -12.288462   1.000000
    6      -12.284705   1.000000
    7      -12.280758   1.000000
    8      -12.276956   1.000000
    9      -12.270396   1.000000
   10      -12.264746   1.000000
   11      -12.264631   1.000000
   12      -12.262984   1.000000
   13      -12.262984   1.000000
   14      -12.262721   1.000000
   15      -12.262720   1.000000
   16      -12.261672   1.000000
   17      -12.260769   1.000000
   18      -12.260241   1.000000
   19      -12.257837   1.000000
   20      -12.257594   1.000000
   21      -12.257495   1.000000
   22      -12.257495   1.000000
   23      -12.253566   1.000000
   24      -12.253352   1.000000
   25      -12.252834   1.000000
   26      -12.252834   1.000000
   27      -12.248046   1.000000
   28      -12.248046   1.000000
   29      -12.247302   1.000000
   30      -12.247302   1.000000
   31      -12.245618   1.000000
   32      -12.245618   1.000000
   33      -12.243760   1.000000
   34      -12.243760   1.000000
   35      -12.238789   1.000000
   36      -12.238789   1.000000
   37      -12.238702   1.000000
   38      -12.238702   1.000000
   39      -12.233406   1.000000
   40      -12.233406   1.000000
   41      -12.232062   1.000000
   42      -12.232062   1.000000
   43      -12.229732   1.000000
   44      -12.229732   1.000000
   45      -12.227555   1.000000
   46      -12.227555   1.000000
   47      -12.224092   1.000000
   48      -12.224092   1.000000
   49      -12.222644   1.000000
   50      -12.222644   1.000000
   51      -12.219146   1.000000
   52      -12.219024   1.000000
   53      -12.211015   1.000000
   54      -12.211015   1.000000
   55      -12.210856   1.000000
   56      -12.210856   1.000000
   57      -12.206961   1.000000
   58      -12.206961   1.000000
   59      -12.206860   1.000000
   60      -12.206860   1.000000
   61      -12.116666   1.000000
   62      -12.116665   1.000000
   63      -12.116350   1.000000
   64      -12.116349   1.000000
   65      -12.115192   1.000000
   66      -12.115192   1.000000
   67      -12.114623   1.000000
   68      -12.114622   1.000000
   69      -12.113605   1.000000
   70      -12.113604   1.000000
   71      -12.110714   1.000000
   72      -12.110713   1.000000
   73      -12.104165   1.000000
   74      -12.104165   1.000000
   75      -12.095579   1.000000
   76      -12.095578   1.000000
   77      -12.083598   1.000000
   78      -12.083597   1.000000
   79      -12.080936   1.000000
   80      -12.080936   1.000000
   81      -12.075371   1.000000
   82      -12.075370   1.000000
   83      -12.053433   1.000000
   84      -12.053432   1.000000
   85      -12.038038   1.000000
   86      -12.038038   1.000000
   87      -12.021292   1.000000
   88      -12.021291   1.000000
   89      -12.007121   1.000000
   90      -12.007120   1.000000
   91      -11.995819   1.000000
   92      -11.995819   1.000000
   93      -11.984963   1.000000
   94      -11.984962   1.000000
   95      -11.977984   1.000000
   96      -11.977983   1.000000
   97      -11.964393   1.000000
   98      -11.964392   1.000000
   99      -11.964262   1.000000
  100      -11.964262   1.000000
  101       -6.999889   1.000000
  102       -6.963311   1.000000
  103       -6.910205   1.000000
  104       -6.841899   1.000000
  105       -6.750398   1.000000
  106       -6.631355   1.000000
  107       -6.485488   1.000000
  108       -6.313682   1.000000
  109       -6.122194   1.000000
  110       -5.887550   1.000000
  111       -5.651491   1.000000
  112       -5.363901   1.000000
  113       -5.081990   1.000000
  114       -4.785257   1.000000
  115       -4.487398   1.000000
  116       -4.196982   1.000000
  117       -3.925246   1.000000
  118       -3.691033   1.000000
  119       -3.499573   1.000000
  120       -3.366339   1.000000
  121        0.629207   1.000000
  122        0.832536   1.000000
  123        1.144087   1.000000
  124        1.539865   1.000000
  125        2.004077   1.000000
  126        2.525671   1.000000
  127        3.094451   1.000000
  128        3.703233   1.000000
  129        4.342999   1.000000
  130        5.020438  -0.025299
  131        5.696467  -0.000000
  132        6.394418  -0.000000
  133        7.049332  -0.000000
  134        7.658797   0.000000
  135        8.125824   0.000000
  136        8.519119   0.000000
  137        8.631959   0.000000
  138        9.200291   0.000000
  139        9.315423   0.000000
  140       10.064654   0.000000
  141       10.140810   0.000000
  142       10.476499   0.000000
  143       10.476501   0.000000
  144       10.505676   0.000000
  145       10.505677   0.000000
  146       10.547871   0.000000
  147       10.547872   0.000000
  148       10.600819   0.000000
  149       10.600820   0.000000
  150       10.668885   0.000000
  151       10.668886   0.000000
  152       10.754978   0.000000
  153       10.754980   0.000000
  154       10.857215   0.000000
  155       10.857217   0.000000
  156       10.972963   0.000000
  157       10.972965   0.000000
  158       10.988523   0.000000
  159       11.034690   0.000000
  160       11.096194   0.000000
  161       11.096196   0.000000
  162       11.238057   0.000000
  163       11.238058   0.000000
  164       11.375056   0.000000
  165       11.375058   0.000000
  166       11.532029   0.000000
  167       11.532031   0.000000
  168       11.677313   0.000000
  169       11.677315   0.000000
  170       11.753695   0.000000
  171       11.818773   0.000000
  172       11.818775   0.000000
  173       11.948695   0.000000
  174       11.948697   0.000000
  175       12.009626   0.000000
  176       12.063282   0.000000
  177       12.063284   0.000000
  178       12.160592   0.000000
  179       12.160593   0.000000
  180       12.235157   0.000000
  181       12.235159   0.000000
  182       12.288093   0.000000
  183       12.288095   0.000000
  184       12.320142   0.000000
  185       12.320144   0.000000
  186       12.362496   0.000000
  187       13.399082   0.000000
  188       13.806683   0.000000
  189       13.807728   0.000000
  190       13.814643   0.000000
  191       13.834124   0.000000
  192       13.848309   0.000000
  193       13.864574   0.000000
  194       13.873779   0.000000
  195       13.916220   0.000000
  196       13.935674   0.000000
  197       13.967464   0.000000
  198       13.992376   0.000000
  199       14.029947   0.000000
  200       14.070951   0.000000
  201       14.138888   0.000000
  202       14.194758   0.000000
  203       14.208015   0.000000
  204       14.291874   0.000000
  205       14.347144   0.000000
  206       14.456121   0.000000
  207       14.474337   0.000000
  208       14.536738   0.000000
  209       14.590764   0.000000
  210       14.731302   0.000000
  211       14.917467   0.000000
  212       14.921135   0.000000
  213       15.119662   0.000000
  214       15.325012   0.000000
  215       15.560611   0.000000
  216       15.798016   0.000000
  217       16.061339   0.000000
  218       16.107002   0.000000
  219       16.107004   0.000000
  220       16.142592   0.000000
  221       16.142594   0.000000
  222       16.185469   0.000000
  223       16.198822   0.000000
  224       16.198824   0.000000
  225       16.274556   0.000000
  226       16.274558   0.000000
  227       16.368117   0.000000
  228       16.371091   0.000000
  229       16.371094   0.000000
  230       16.491326   0.000000
  231       16.491328   0.000000
  232       16.494215   0.000000
  233       16.510495   0.000000
  234       16.634421   0.000000
  235       16.634423   0.000000
  236       16.658242   0.000000
  237       16.770622   0.000000
  238       16.798950   0.000000
  239       16.798952   0.000000
  240       16.951069   0.000000
  241       16.982257   0.000000
  242       16.982259   0.000000
  243       16.987622   0.000000
  244       17.190301   0.000000
  245       17.190303   0.000000
  246       17.245466   0.000000
  247       17.302696   0.000000
  248       17.409524   0.000000
  249       17.411673   0.000000
  250       17.420187   0.000000

  0.4000000E-01  0.3729655E-15  0.1165734E-14  0.9600000E-02
    1      -12.296929   1.000000
    2      -12.296753   1.000000
    3      -12.289049   1.000000
    4      -12.288555   1.000000
    5      -12.286476   1.000000
    6      -12.283196   1.000000
    7      -12.279881   1.000000
    8      -12.276660   1.000000
    9      -12.271223   1.000000
   10      -12.264958   1.000000
   11      -12.264765   1.000000
   12      -12.264110   1.000000
   13      -12.263987   1.000000
   14      -12.263917   1.000000
   15      -12.262986   1.000000
   16      -12.262451   1.000000
   17      -12.260839   1.000000
   18      -12.259758   1.000000
   19      -12.259645   1.000000
   20      -12.259423   1.000000
   21      -12.259157   1.000000
   22      -12.254716   1.000000
   23      -12.254495   1.000000
   24      -12.251103   1.000000
   25      -12.249846   1.000000
   26      -12.248826   1.000000
   27      -12.246980   1.000000
   28      -12.246528   1.000000
   29      -12.244301   1.000000
   30      -12.243872   1.000000
   31      -12.243353   1.000000
   32      -12.242088   1.000000
   33      -12.241562   1.000000
   34      -12.239902   1.000000
   35      -12.238319   1.000000
   36      -12.235800   1.000000
   37      -12.235453   1.000000
   38      -12.234633   1.000000
   39      -12.232974   1.000000
   40      -12.229719   1.000000
   41      -12.229712   1.000000
   42      -12.228931   1.000000
   43      -12.228746   1.000000
   44      -12.225989   1.000000
   45      -12.225346   1.000000
   46      -12.224109   1.000000
   47      -12.222966   1.000000
   48      -12.221017   1.000000
   49      -12.220490   1.000000
   50      -12.219373   1.000000
   51      -12.219191   1.000000
   52      -12.218320   1.000000
   53      -12.209809   1.000000
   54      -12.209651   1.000000
   55      -12.207635   1.000000
   56      -12.207470   1.000000
   57      -12.204738   1.000000
   58      -12.204631   1.000000
   59      -12.203148   1.000000
   60      -12.203045   1.000000
   61      -12.122891   1.000000
   62      -12.121576   1.000000
   63      -12.121400   1.000000
   64      -12.120052   1.000000
   65      -12.118622   1.000000
   66      -12.117236   1.000000
   67      -12.115286   1.000000
   68      -12.113955   1.000000
   69      -12.113181   1.000000
   70      -12.111976   1.000000
   71      -12.110111   1.000000
   72      -12.109153   1.000000
   73      -12.103973   1.000000
   74      -12.103231   1.000000
   75      -12.095721   1.000000
   76      -12.095033   1.000000
   77      -12.084540   1.000000
   78      -12.083463   1.000000
   79      -12.081862   1.000000
   80      -12.080788   1.000000
   81      -12.075982   1.000000
   82      -12.075125   1.000000
   83      -12.054539   1.000000
   84      -12.053299   1.000000
   85      -12.039541   1.000000
   86      -12.037880   1.000000
   87      -12.023189   1.000000
   88      -12.021101   1.000000
   89      -12.009395   1.000000
   90      -12.006912   1.000000
   91      -11.998429   1.000000
   92      -11.995585   1.000000
   93      -11.987839   1.000000
   94      -11.984700   1.000000
   95      -11.981054   1.000000
   96      -11.977679   1.000000
   97      -11.967070   1.000000
   98      -11.966939   1.000000
   99      -11.964115   1.000000
  100      -11.963983   1.000000
  101       -6.972191   1.000000
  102       -6.935589   1.000000
  103       -6.882480   1.000000
  104       -6.814147   1.000000
  105       -6.722630   1.000000
  106       -6.603606   1.000000
  107       -6.457779   1.000000
  108       -6.286044   1.000000
  109       -6.094670   1.000000
  110       -5.860228   1.000000
  111       -5.624393   1.000000
  112       -5.337154   1.000000
  113       -5.055656   1.000000
  114       -4.759446   1.000000
  115       -4.462226   1.000000
  116       -4.172567   1.000000
  117       -3.901687   1.000000
  118       -3.668365   1.000000
  119       -3.477746   1.000000
  120       -3.345158   1.000000
  121        0.661766   1.000000
  122        0.864280   1.000000
  123        1.174708   1.000000
  124        1.569208   1.000000
  125        2.032013   1.000000
  126        2.552081   1.000000
  127        3.119201   1.000000
  128        3.726159   1.000000
  129        4.363944   1.000000
  130        5.039057  -0.016927
  131        5.712816  -0.000000
  132        6.408217  -0.000000
  133        7.061423  -0.000000
  134        7.670797   0.000000
  135        8.141770   0.000000
  136        8.533783   0.000000
  137        8.650014   0.000000
  138        9.209789   0.000000
  139        9.322604   0.000000
  140       10.059325   0.000000
  141       10.088894   0.000000
  142       10.118231   0.000000
  143       10.133153   0.000000
  144       10.163098   0.000000
  145       10.217826   0.000000
  146       10.289117   0.000000
  147       10.334101   0.000000
  148       10.364969   0.000000
  149       10.377738   0.000000
  150       10.409887   0.000000
  151       10.466647   0.000000
  152       10.484939   0.000000
  153       10.539828   0.000000
  154       10.605440   0.000000
  155       10.632436   0.000000
  156       10.737354   0.000000
  157       10.742682   0.000000
  158       10.868026   0.000000
  159       10.883579   0.000000
  160       10.952809   0.000000
  161       11.002316   0.000000
  162       11.015027   0.000000
  163       11.053500   0.000000
  164       11.157645   0.000000
  165       11.219113   0.000000
  166       11.308614   0.000000
  167       11.376402   0.000000
  168       11.481794   0.000000
  169       11.544677   0.000000
  170       11.621453   0.000000
  171       11.642761   0.000000
  172       11.718427   0.000000
  173       11.800062   0.000000
  174       11.844250   0.000000
  175       11.878919   0.000000
  176       11.945073   0.000000
  177       11.992727   0.000000
  178       12.040251   0.000000
  179       12.073506   0.000000
  180       12.095950   0.000000
  181       12.138191   0.000000
  182       12.182828   0.000000
  183       12.267132   0.000000
  184       12.327801   0.000000
  185       12.365212   0.000000
  186       12.369446   0.000000
  187       13.425181   0.000000
  188       13.820930   0.000000
  189       13.838728   0.000000
  190       13.864239   0.000000
  191       13.887232   0.000000
  192       13.918057   0.000000
  193       13.942105   0.000000
  194       13.966912   0.000000
  195       13.999263   0.000000
  196       14.039343   0.000000
  197       14.082014   0.000000
  198       14.136552   0.000000
  199       14.180434   0.000000
  200       14.219805   0.000000
  201       14.239486   0.000000
  202       14.247403   0.000000
  203       14.286086   0.000000
  204       14.296385   0.000000
  205       14.361135   0.000000
  206       14.420679   0.000000
  207       14.457658   0.000000
  208       14.664131   0.000000
  209       14.721963   0.000000
  210       14.812294   0.000000
  211       14.918282   0.000000
  212       14.963799   0.000000
  213       15.065310   0.000000
  214       15.223632   0.000000
  215       15.404521   0.000000
  216       15.603174   0.000000
  217       15.825243   0.000000
  218       16.042221   0.000000
  219       16.174337   0.000000
  220       16.209341   0.000000
  221       16.264465   0.000000
  222       16.267096   0.000000
  223       16.306589   0.000000
  224       16.338585   0.000000
  225       16.429829   0.000000
  226       16.433222   0.000000
  227       16.465646   0.000000
  228       16.505260   0.000000
  229       16.546101   0.000000
  230       16.551375   0.000000
  231       16.615820   0.000000
  232       16.656529   0.000000
  233       16.681523   0.000000
  234       16.692246   0.000000
  235       16.758536   0.000000
  236       16.781836   0.000000
  237       16.854435   0.000000
  238       16.864569   0.000000
  239       16.920028   0.000000
  240       16.969960   0.000000
  241       17.035025   0.000000
  242       17.040052   0.000000
  243       17.070801   0.000000
  244       17.213249   0.000000
  245       17.239808   0.000000
  246       17.248712   0.000000
  247       17.283197   0.000000
  248       17.446103   0.000000
  249       17.451725   0.000000
  250       17.463577   0.000000

  0.8000000E-01  0.3677614E-15  0.2220446E-14  0.9600000E-02
    1      -12.293432   1.000000
    2      -12.293259   1.000000
    3      -12.285447   1.000000
    4      -12.285196   1.000000
    5      -12.282642   1.000000
    6      -12.281017   1.000000
    7      -12.279761   1.000000
    8      -12.278726   1.000000
    9      -12.275293   1.000000
   10      -12.269496   1.000000
   11      -12.268088   1.000000
   12      -12.267196   1.000000
   13      -12.266295   1.000000
   14      -12.265120   1.000000
   15      -12.264140   1.000000
   16      -12.263781   1.000000
   17      -12.263459   1.000000
   18      -12.262722   1.000000
   19      -12.261112   1.000000
   20      -12.251105   1.000000
   21      -12.250320   1.000000
   22      -12.250290   1.000000
   23      -12.249318   1.000000
   24      -12.246515   1.000000
   25      -12.245931   1.000000
   26      -12.245194   1.000000
   27      -12.241816   1.000000
   28      -12.241247   1.000000
   29      -12.239991   1.000000
   30      -12.235929   1.000000
   31      -12.234926   1.000000
   32      -12.234657   1.000000
   33      -12.232889   1.000000
   34      -12.231055   1.000000
   35      -12.229903   1.000000
   36      -12.229752   1.000000
   37      -12.228784   1.000000
   38      -12.226356   1.000000
   39      -12.225419   1.000000
   40      -12.224380   1.000000
   41      -12.223545   1.000000
   42      -12.221171   1.000000
   43      -12.219295   1.000000
   44      -12.219245   1.000000
   45      -12.219119   1.000000
   46      -12.218786   1.000000
   47      -12.217182   1.000000
   48      -12.215182   1.000000
   49      -12.213940   1.000000
   50      -12.213467   1.000000
   51      -12.209552   1.000000
   52      -12.207502   1.000000
   53      -12.207340   1.000000
   54      -12.206187   1.000000
   55      -12.197825   1.000000
   56      -12.197637   1.000000
   57      -12.197093   1.000000
   58      -12.196970   1.000000
   59      -12.191936   1.000000
   60      -12.191830   1.000000
   61      -12.134067   1.000000
   62      -12.131239   1.000000
   63      -12.128856   1.000000
   64      -12.126647   1.000000
   65      -12.125991   1.000000
   66      -12.121343   1.000000
   67      -12.120963   1.000000
   68      -12.116332   1.000000
   69      -12.115753   1.000000
   70      -12.111462   1.000000
   71      -12.111266   1.000000
   72      -12.107086   1.000000
   73      -12.104450   1.000000
   74      -12.101211   1.000000
   75      -12.096386   1.000000
   76      -12.093655   1.000000
   77      -12.087010   1.000000
   78      -12.084039   1.000000
   79      -12.082927   1.000000
   80      -12.080095   1.000000
   81      -12.077244   1.000000
   82      -12.074334   1.000000
   83      -12.057269   1.000000
   84      -12.052887   1.000000
   85      -12.043561   1.000000
   86      -12.037458   1.000000
   87      -12.028513   1.000000
   88      -12.020598   1.000000
   89      -12.015849   1.000000
   90      -12.006313   1.000000
   91      -12.005897   1.000000
   92      -11.996183   1.000000
   93      -11.994882   1.000000
   94      -11.990019   1.000000
   95      -11.983911   1.000000
   96      -11.976839   1.000000
   97      -11.974693   1.000000
   98      -11.974566   1.000000
   99      -11.963328   1.000000
  100      -11.963196   1.000000
  101       -6.889003   1.000000
  102       -6.852402   1.000000
  103       -6.799251   1.000000
  104       -6.730854   1.000000
  105       -6.639312   1.000000
  106       -6.520352   1.000000
  107       -6.374666   1.000000
  108       -6.203168   1.000000
  109       -6.012150   1.000000
  110       -5.778335   1.000000
  111       -5.543200   1.000000
  112       -5.257026   1.000000
  113       -4.976785   1.000000
  114       -4.682167   1.000000
  115       -4.386875   1.000000
  116       -4.099496   1.000000
  117       -3.831193   1.000000
  118       -3.600557   1.000000
  119       -3.412468   1.000000
  120       -3.281816   1.000000
  121        0.758979   1.000000
  122        0.959028   1.000000
  123        1.266040   1.000000
  124        1.656621   1.000000
  125        2.115070   1.000000
  126        2.630374   1.000000
  127        3.192246   1.000000
  128        3.793349   1.000000
  129        4.424630   1.000000
  130        5.091901  -0.003084
  131        5.757652  -0.000000
  132        6.443505  -0.000000
  133        7.089206  -0.000000
  134        7.695618   0.000000
  135        8.178436   0.000000
  136        8.563383   0.000000
  137        8.694740   0.000000
  138        9.189817   0.000000
  139        9.202629   0.000000
  140        9.238057   0.000000
  141        9.280816   0.000000
  142        9.318253   0.000000
  143        9.353725   0.000000
  144        9.426713   0.000000
  145        9.531046   0.000000
  146        9.649012   0.000000
  147        9.791261   0.000000
  148        9.908136   0.000000
  149        9.971009   0.000000
  150        9.990794   0.000000
  151       10.024754   0.000000
  152       10.074615   0.000000
  153       10.114213   0.000000
  154       10.138272   0.000000
  155       10.162029   0.000000
  156       10.220743   0.000000
  157       10.320990   0.000000
  158       10.325272   0.000000
  159       10.450289   0.000000
  160       10.496520   0.000000
  161       10.593548   0.000000
  162       10.623194   0.000000
  163       10.748783   0.000000
  164       10.760066   0.000000
  165       10.903585   0.000000
  166       10.930219   0.000000
  167       10.992613   0.000000
  168       11.102303   0.000000
  169       11.108890   0.000000
  170       11.263063   0.000000
  171       11.303830   0.000000
  172       11.315343   0.000000
  173       11.366587   0.000000
  174       11.501844   0.000000
  175       11.509962   0.000000
  176       11.591538   0.000000
  177       11.702951   0.000000
  178       11.800666   0.000000
  179       11.883767   0.000000
  180       12.046723   0.000000
  181       12.055044   0.000000
  182       12.187389   0.000000
  183       12.298034   0.000000
  184       12.379966   0.000000
  185       12.380119   0.000000
  186       12.432102   0.000000
  187       13.390501   0.000000
  188       13.424403   0.000000
  189       13.451715   0.000000
  190       13.486679   0.000000
  191       13.560766   0.000000
  192       13.651512   0.000000
  193       13.766413   0.000000
  194       13.893323   0.000000
  195       14.019308   0.000000
  196       14.032364   0.000000
  197       14.087874   0.000000
  198       14.150830   0.000000
  199       14.200839   0.000000
  200       14.258564   0.000000
  201       14.294952   0.000000
  202       14.352114   0.000000
  203       14.428686   0.000000
  204       14.496756   0.000000
  205       14.563755   0.000000
  206       14.602791   0.000000
  207       14.621047   0.000000
  208       15.038467   0.000000
  209       15.080053   0.000000
  210       15.122550   0.000000
  211       15.187300   0.000000
  212       15.273917   0.000000
  213       15.379155   0.000000
  214       15.498010   0.000000
  215       15.623091   0.000000
  216       15.734374   0.000000
  217       15.786517   0.000000
  218       15.812294   0.000000
  219       15.848551   0.000000
  220       16.037631   0.000000
  221       16.286302   0.000000
  222       16.377347   0.000000
  223       16.410670   0.000000
  224       16.434430   0.000000
  225       16.462667   0.000000
  226       16.532272   0.000000
  227       16.536961   0.000000
  228       16.621631   0.000000
  229       16.730396   0.000000
  230       16.734102   0.000000
  231       16.842717   0.000000
  232       16.869098   0.000000
  233       16.933120   0.000000
  234       17.012284   0.000000
  235       17.025424   0.000000
  236       17.036002   0.000000
  237       17.074637   0.000000
  238       17.178682   0.000000
  239       17.199607   0.000000
  240       17.228943   0.000000
  241       17.306020   0.000000
  242       17.360586   0.000000
  243       17.396313   0.000000
  244       17.436275   0.000000
  245       17.452609   0.000000
  246       17.536088   0.000000
  247       17.558334   0.000000
  248       17.567423   0.000000
  249       17.622030   0.000000
  250       17.629657   0.000000

  0.1200000E+00  0.3747003E-15  0.2109424E-14  0.9600000E-02
    1      -12.297301   1.000000
    2      -12.297117   1.000000
    3      -12.292867   1.000000
    4      -12.292146   1.000000
    5      -12.290875   1.000000
    6      -12.288349   1.000000
    7      -12.285253   1.000000
    8      -12.281702   1.000000
    9      -12.274290   1.000000
   10      -12.268572   1.000000
   11      -12.268186   1.000000
   12      -12.266263   1.000000
   13      -12.265596   1.000000
   14      -12.264692   1.000000
   15      -12.263572   1.000000
   16      -12.262312   1.000000
   17      -12.261435   1.000000
   18      -12.261082   1.000000
   19      -12.260192   1.000000
   20      -12.246173   1.000000
   21      -12.245253   1.000000
   22      -12.242416   1.000000
   23      -12.240028   1.000000
   24      -12.238829   1.000000
   25      -12.237902   1.000000
   26      -12.235378   1.000000
   27      -12.234203   1.000000
   28      -12.233760   1.000000
   29      -12.231153   1.000000
   30      -12.228508   1.000000
   31      -12.227909   1.000000
   32      -12.225677   1.000000
   33      -12.222999   1.000000
   34      -12.221370   1.000000
   35      -12.221160   1.000000
   36      -12.219969   1.000000
   37      -12.217745   1.000000
   38      -12.216750   1.000000
   39      -12.214738   1.000000
   40      -12.213464   1.000000
   41      -12.212680   1.000000
   42      -12.212662   1.000000
   43      -12.210053   1.000000
   44      -12.208055   1.000000
   45      -12.206821   1.000000
   46      -12.205795   1.000000
   47      -12.203462   1.000000
   48      -12.203058   1.000000
   49      -12.202413   1.000000
   50      -12.198473   1.000000
   51      -12.198431   1.000000
   52      -12.197146   1.000000
   53      -12.192170   1.000000
   54      -12.187548   1.000000
   55      -12.184751   1.000000
   56      -12.184585   1.000000
   57      -12.182340   1.000000
   58      -12.181945   1.000000
   59      -12.174029   1.000000
   60      -12.173918   1.000000
   61      -12.147378   1.000000
   62      -12.142659   1.000000
   63      -12.136099   1.000000
   64      -12.136013   1.000000
   65      -12.131525   1.000000
   66      -12.128501   1.000000
   67      -12.125039   1.000000
   68      -12.121708   1.000000
   69      -12.117586   1.000000
   70      -12.114561   1.000000
   71      -12.111253   1.000000
   72      -12.106322   1.000000
   73      -12.105191   1.000000
   74      -12.098687   1.000000
   75      -12.097811   1.000000
   76      -12.091482   1.000000
   77      -12.089726   1.000000
   78      -12.085695   1.000000
   79      -12.081371   1.000000
   80      -12.078189   1.000000
   81      -12.078020   1.000000
   82      -12.072902   1.000000
   83      -12.060372   1.000000
   84      -12.052312   1.000000
   85      -12.048765   1.000000
   86      -12.036878   1.000000
   87      -12.035974   1.000000
   88      -12.025339   1.000000
   89      -12.019894   1.000000
   90      -12.017225   1.000000
   91      -12.009122   1.000000
   92      -12.005441   1.000000
   93      -12.004069   1.000000
   94      -11.993838   1.000000
   95      -11.985975   1.000000
   96      -11.985851   1.000000
   97      -11.982715   1.000000
   98      -11.975552   1.000000
   99      -11.962146   1.000000
  100      -11.962013   1.000000
  101       -6.750277   1.000000
  102       -6.713660   1.000000
  103       -6.660445   1.000000
  104       -6.591988   1.000000
  105       -6.500489   1.000000
  106       -6.381646   1.000000
  107       -6.236233   1.000000
  108       -6.065217   1.000000
  109       -5.874837   1.000000
  110       -5.642122   1.000000
  111       -5.408231   1.000000
  112       -5.123900   1.000000
  113       -4.845825   1.000000
  114       -4.553937   1.000000
  115       -4.261934   1.000000
  116       -3.978418   1.000000
  117       -3.714458   1.000000
  118       -3.488320   1.000000
  119       -3.304448   1.000000
  120       -3.177011   1.000000
  121        0.919408   1.000000
  122        1.115260   1.000000
  123        1.416383   1.000000
  124        1.800098   1.000000
  125        2.250773   1.000000
  126        2.757384   1.000000
  127        3.309402   1.000000
  128        3.899086   1.000000
  129        4.517013   1.000005
  130        5.167085  -0.000084
  131        5.813200  -0.000000
  132        6.472018  -0.000000
  133        7.088292  -0.000000
  134        7.663109   0.000000
  135        8.140994   0.000000
  136        8.151716   0.000000
  137        8.188566   0.000000
  138        8.241606   0.000000
  139        8.313423   0.000000
  140        8.394582   0.000000
  141        8.489616   0.000000
  142        8.537416   0.000000
  143        8.674122   0.000000
  144        8.734450   0.000000
  145        8.878139   0.000000