 vasp.5.4.4.18Apr17-6-g9f103f2a35 (build Sep 13 2019 13:34:59) complex           
 executed on             LinuxGNU date 2020.11.20  19:46:15
 running on   30 total cores
 distrk:  each k-point on   30 cores,    1 groups
 distr:  one band on NCORES_PER_BAND=   6 cores,    5 groups


--------------------------------------------------------------------------------------------------------


 INCAR:
 POTCAR:    PAW_PBE Pb_d 06Sep2000                
 POTCAR:    PAW_PBE Pb_d 06Sep2000                
   VRHFIN =Pb:                                                                  
   LEXCH  = PE                                                                  
   EATOM  =  1661.6185 eV,  122.1255 Ry                                         
                                                                                
   TITEL  = PAW_PBE Pb_d 06Sep2000                                              
   LULTRA =        F    use ultrasoft PP ?                                      
   IUNSCR =        1    unscreen: 0-lin 1-nonlin 2-no                           
   RPACOR =    2.200    partial core radius                                     
   POMASS =  207.200; ZVAL   =   14.000    mass and valenz                      
   RCORE  =    2.500    outmost cutoff radius                                   
   RWIGS  =    3.260; RWIGS  =    1.725    wigner-seitz radius (au A)           
   ENMAX  =  237.835; ENMIN  =  178.376 eV                                      
   ICORE  =        3    local potential                                         
   LCOR   =        T    correct aug charges                                     
   LPAW   =        T    paw PP                                                  
   EAUG   =  391.914                                                            
   DEXC   =    0.000                                                            
   RMAX   =    2.565    core radius for proj-oper                               
   RAUG   =    1.300    factor for augmentation sphere                          
   RDEP   =    2.643    radius for radial grids                                 
   RDEPT  =    2.092    core radius for aug-charge                              
                                                                                
   Atomic configuration                                                         
   16 entries                                                                   
     n  l   j            E        occ.                                          
     1  0  0.50    -88091.8466   2.0000                                         
     2  0  0.50    -15753.4197   2.0000                                         
     2  1  1.50    -13508.1797   6.0000                                         
     3  0  0.50     -3781.7194   2.0000                                         
     3  1  1.50     -3138.2529   6.0000                                         
     3  2  2.50     -2483.2977  10.0000                                         
     4  0  0.50      -856.2895   2.0000                                         
     4  1  1.50      -645.4942   6.0000                                         
     4  2  2.50      -401.8768  10.0000                                         
     4  3  3.50      -132.9059  14.0000                                         
     5  0  0.50      -144.0950   2.0000                                         
     5  1  1.50       -85.7879   6.0000                                         
     5  2  2.50       -21.1769  10.0000                                         
     6  0  0.50       -12.0372   2.0000                                         
     6  1  1.50        -3.4971   2.0000                                         
     5  3  2.50        -2.7212   0.0000                                         
   Description                                                                  
     l       E           TYP  RCUT    TYP  RCUT                                 
     2    -21.1768523     23  2.500                                             
     2      1.3605826     23  2.500                                             
     0    -12.0371562     23  2.500                                             
     0     13.6058260     23  2.500                                             
     1     -3.4971339     23  2.500                                             
     1     13.6058260     23  2.500                                             
     3     -1.3605826      7  2.500                                             
  local pseudopotential read in
  partial core-charges read in
  partial kinetic energy density read in
  atomic valenz-charges read in
  non local Contribution for L=           2  read in
    real space projection operators read in
  non local Contribution for L=           2  read in
    real space projection operators read in
  non local Contribution for L=           0  read in
    real space projection operators read in
  non local Contribution for L=           0  read in
    real space projection operators read in
  non local Contribution for L=           1  read in
    real space projection operators read in
  non local Contribution for L=           1  read in
    real space projection operators read in
    PAW grid and wavefunctions read in

   number of l-projection  operators is LMAX  =           6
   number of lm-projection operators is LMMAX =          18


 ----------------------------------------------------------------------------- 
|                                                                             |
|  ADVICE TO THIS USER RUNNING 'VASP/VAMP'   (HEAR YOUR MASTER'S VOICE ...):  |
|                                                                             |
|      You have a (more or less) 'large supercell' and for larger cells       |
|      it might be more efficient to use real space projection opertators     |
|      So try LREAL= Auto  in the INCAR   file.                               |
|      Mind:          For very  accurate calculation you might also keep the  |
|      reciprocal projection scheme          (i.e. LREAL=.FALSE.)             |
|                                                                             |
 ----------------------------------------------------------------------------- 

  PAW_PBE Pb_d 06Sep2000                :
 energy of atom  1       EATOM=-1661.6185
 kinetic energy error for atom=    0.0069 (will be added to EATOM!!)


 POSCAR: Pb_2Dslab_20L                           
  positions in direct lattice
  velocities in cartesian coordinates
 exchange correlation table for  LEXCH =        8
   RHO(1)=    0.500       N(1)  =     2000
   RHO(2)=  100.500       N(2)  =     4000



--------------------------------------------------------------------------------------------------------


 ion  position               nearest neighbor table
   1  0.667  0.333  0.001-   2 3.38   2 3.38   2 3.38
   2  0.000  0.000  0.038-   1 3.38   1 3.38   1 3.38   3 3.52   3 3.52   3 3.52
   3  0.333  0.667  0.077-   4 3.49   4 3.49   4 3.49   2 3.52   2 3.52   2 3.52
   4  0.667  0.333  0.115-   3 3.49   3 3.49   3 3.49   5 3.49   5 3.49   5 3.49
   5  0.000  0.000  0.154-   6 3.49   6 3.49   6 3.49   4 3.49   4 3.49   4 3.49
   6  0.333  0.667  0.192-   7 3.48   7 3.48   7 3.48   5 3.49   5 3.49   5 3.49
   7  0.667  0.333  0.231-   6 3.48   6 3.48   6 3.48   8 3.49   8 3.49   8 3.49
   8  0.000  0.000  0.269-   9 3.48   9 3.48   9 3.48   7 3.49   7 3.49   7 3.49
   9  0.333  0.667  0.307-   8 3.48   8 3.48   8 3.48  10 3.50  10 3.50  10 3.50
  10  0.667  0.333  0.346-  11 3.48  11 3.48  11 3.48   9 3.50   9 3.50   9 3.50
  11  0.000  0.000  0.384-  10 3.48  10 3.48  10 3.48  12 3.50  12 3.50  12 3.50
  12  0.333  0.667  0.423-  13 3.48  13 3.48  13 3.48  11 3.50  11 3.50  11 3.50
  13  0.667  0.333  0.461-  12 3.48  12 3.48  12 3.48  14 3.49  14 3.49  14 3.49
  14  0.000  0.000  0.500-  15 3.48  15 3.48  15 3.48  13 3.49  13 3.49  13 3.49
  15  0.333  0.667  0.538-  14 3.48  14 3.48  14 3.48  16 3.49  16 3.49  16 3.49
  16  0.667  0.333  0.576-  15 3.49  15 3.49  15 3.49  17 3.49  17 3.49  17 3.49
  17  0.000  0.000  0.615-  18 3.49  18 3.49  18 3.49  16 3.49  16 3.49  16 3.49
  18  0.333  0.667  0.653-  17 3.49  17 3.49  17 3.49  19 3.52  19 3.52  19 3.52
  19  0.667  0.333  0.692-  20 3.38  20 3.38  20 3.38  18 3.52  18 3.52  18 3.52
  20  0.000  0.000  0.729-  19 3.38  19 3.38  19 3.38

  LATTYP: Found a hexagonal cell.
 ALAT       =     3.4867435000
 C/A-ratio  =    21.2494464735
  
  Lattice vectors:
  
 A1 = (   2.4654999731,  -2.4654999731,   0.0000000000)
 A2 = (   0.0000000000,   2.4654999731,  -2.4654999731)
 A3 = (  42.7766720505,  42.7766720505,  42.7766720505)


Analysis of symmetry for initial positions (statically):
=====================================================================
 Subroutine PRICEL returns:
 Original cell was already a primitive cell.
 

 Routine SETGRP: Setting up the symmetry group for a 
 hexagonal supercell.


 Subroutine GETGRP returns: Found 12 space group operations
 (whereof  6 operations were pure point group operations)
 out of a pool of 24 trial point group operations.


The static configuration has the point symmetry C_3v.
 The point group associated with its full space group is D_3d.


Analysis of symmetry for dynamics (positions and initial velocities):
=====================================================================
 Subroutine PRICEL returns:
 Original cell was already a primitive cell.
 

 Routine SETGRP: Setting up the symmetry group for a 
 hexagonal supercell.


 Subroutine GETGRP returns: Found 12 space group operations
 (whereof  6 operations were pure point group operations)
 out of a pool of 24 trial point group operations.


The dynamic configuration has the point symmetry C_3v.
 The point group associated with its full space group is D_3d.


 Subroutine INISYM returns: Found 12 space group operations
 (whereof  6 operations are pure point group operations),
 and found     1 'primitive' translations



 KPOINTS: Pb_2Dslab_20L                           

Automatic generation of k-mesh.
Space group operators:
 irot       det(A)        alpha          n_x          n_y          n_z        tau_x        tau_y        tau_z
    1     1.000000     0.000000     1.000000     0.000000     0.000000     0.000000     0.000000     0.000000
    2     1.000000   120.000000    -0.577350    -0.577350    -0.577350     0.000000     0.000000     0.000000
    3     1.000000   120.000000     0.577350     0.577350     0.577350     0.000000     0.000000     0.000000
    4    -1.000000   180.000000     0.707107    -0.707107     0.000000     0.000000     0.000000     0.000000
    5    -1.000000   180.000000     0.000000     0.707107    -0.707107     0.000000     0.000000     0.000000
    6    -1.000000   180.000000     0.707107    -0.000000    -0.707107     0.000000     0.000000     0.000000
    7    -1.000000     0.000000     1.000000     0.000000     0.000000     0.666667     0.333334     0.730063
    8    -1.000000   120.000000    -0.577350    -0.577350    -0.577350     0.666666     0.333334     0.730063
    9    -1.000000   120.000000     0.577350     0.577350     0.577350     0.666667     0.333334     0.730063
   10     1.000000   180.000000     0.707107    -0.707107     0.000000     0.666667     0.333334     0.730063
   11     1.000000   180.000000     0.000000     0.707107    -0.707107     0.666667     0.333334     0.730063
   12     1.000000   180.000000     0.707107    -0.000000    -0.707107     0.666666     0.333334     0.730063
 
 Subroutine IBZKPT returns following result:
 ===========================================
 
 Found     65 irreducible k-points:
 
 Following reciprocal coordinates:
            Coordinates               Weight
  0.000000  0.000000  0.000000      1.000000
  0.040000  0.000000  0.000000      6.000000
  0.080000  0.000000  0.000000      6.000000
  0.120000  0.000000  0.000000      6.000000
  0.160000  0.000000  0.000000      6.000000
  0.200000  0.000000  0.000000      6.000000
  0.240000  0.000000  0.000000      6.000000
  0.280000  0.000000  0.000000      6.000000
  0.320000  0.000000  0.000000      6.000000
  0.360000  0.000000  0.000000      6.000000
  0.400000  0.000000  0.000000      6.000000
  0.440000  0.000000  0.000000      6.000000
  0.480000  0.000000  0.000000      6.000000
  0.040000  0.040000  0.000000      6.000000
  0.080000  0.040000  0.000000     12.000000
  0.120000  0.040000  0.000000     12.000000
  0.160000  0.040000  0.000000     12.000000
  0.200000  0.040000  0.000000     12.000000
  0.240000  0.040000  0.000000     12.000000
  0.280000  0.040000  0.000000     12.000000
  0.320000  0.040000  0.000000     12.000000
  0.360000  0.040000  0.000000     12.000000
  0.400000  0.040000  0.000000     12.000000
  0.440000  0.040000  0.000000     12.000000
  0.480000  0.040000  0.000000      6.000000
  0.080000  0.080000  0.000000      6.000000
  0.120000  0.080000  0.000000     12.000000
  0.160000  0.080000  0.000000     12.000000
  0.200000  0.080000  0.000000     12.000000
  0.240000  0.080000  0.000000     12.000000
  0.280000  0.080000  0.000000     12.000000
  0.320000  0.080000  0.000000     12.000000
  0.360000  0.080000  0.000000     12.000000
  0.400000  0.080000  0.000000     12.000000
  0.440000  0.080000  0.000000     12.000000
  0.120000  0.120000  0.000000      6.000000
  0.160000  0.120000  0.000000     12.000000
  0.200000  0.120000  0.000000     12.000000
  0.240000  0.120000  0.000000     12.000000
  0.280000  0.120000  0.000000     12.000000
  0.320000  0.120000  0.000000     12.000000
  0.360000  0.120000  0.000000     12.000000
  0.400000  0.120000  0.000000     12.000000
  0.440000  0.120000  0.000000      6.000000
  0.160000  0.160000  0.000000      6.000000
  0.200000  0.160000  0.000000     12.000000
  0.240000  0.160000  0.000000     12.000000
  0.280000  0.160000  0.000000     12.000000
  0.320000  0.160000  0.000000     12.000000
  0.360000  0.160000  0.000000     12.000000
  0.400000  0.160000  0.000000     12.000000
  0.200000  0.200000  0.000000      6.000000
  0.240000  0.200000  0.000000     12.000000
  0.280000  0.200000  0.000000     12.000000
  0.320000  0.200000  0.000000     12.000000
  0.360000  0.200000  0.000000     12.000000
  0.400000  0.200000  0.000000      6.000000
  0.240000  0.240000  0.000000      6.000000
  0.280000  0.240000  0.000000     12.000000
  0.320000  0.240000  0.000000     12.000000
  0.360000  0.240000  0.000000     12.000000
  0.280000  0.280000  0.000000      6.000000
  0.320000  0.280000 -0.000000     12.000000
  0.360000  0.280000  0.000000      6.000000
  0.320000  0.320000  0.000000      6.000000
 
 Following cartesian coordinates:
            Coordinates               Weight
  0.000000  0.000000 -0.000000      1.000000
  0.010816 -0.005408 -0.005408      6.000000
  0.021632 -0.010816 -0.010816      6.000000
  0.032448 -0.016224 -0.016224      6.000000
  0.043264 -0.021632 -0.021632      6.000000
  0.054080 -0.027040 -0.027040      6.000000
  0.064896 -0.032448 -0.032448      6.000000
  0.075711 -0.037856 -0.037856      6.000000
  0.086527 -0.043264 -0.043264      6.000000
  0.097343 -0.048672 -0.048672      6.000000
  0.108159 -0.054080 -0.054080      6.000000
  0.118975 -0.059488 -0.059488      6.000000
  0.129791 -0.064896 -0.064896      6.000000
  0.016224  0.000000 -0.016224      6.000000
  0.027040 -0.005408 -0.021632     12.000000
  0.037856 -0.010816 -0.027040     12.000000
  0.048672 -0.016224 -0.032448     12.000000
  0.059488 -0.021632 -0.037856     12.000000
  0.070304 -0.027040 -0.043264     12.000000
  0.081119 -0.032448 -0.048672     12.000000
  0.091935 -0.037856 -0.054080     12.000000
  0.102751 -0.043264 -0.059488     12.000000
  0.113567 -0.048672 -0.064896     12.000000
  0.124383 -0.054080 -0.070304     12.000000
  0.135199 -0.059488 -0.075711      6.000000
  0.032448  0.000000 -0.032448      6.000000
  0.043264 -0.005408 -0.037856     12.000000
  0.054080 -0.010816 -0.043264     12.000000
  0.064896 -0.016224 -0.048672     12.000000
  0.075711 -0.021632 -0.054080     12.000000
  0.086527 -0.027040 -0.059488     12.000000
  0.097343 -0.032448 -0.064896     12.000000
  0.108159 -0.037856 -0.070304     12.000000
  0.118975 -0.043264 -0.075711     12.000000
  0.129791 -0.048672 -0.081119     12.000000
  0.048672  0.000000 -0.048672      6.000000
  0.059488 -0.005408 -0.054080     12.000000
  0.070304 -0.010816 -0.059488     12.000000
  0.081119 -0.016224 -0.064896     12.000000
  0.091935 -0.021632 -0.070304     12.000000
  0.102751 -0.027040 -0.075711     12.000000
  0.113567 -0.032448 -0.081119     12.000000
  0.124383 -0.037856 -0.086527     12.000000
  0.135199 -0.043264 -0.091935      6.000000
  0.064896 -0.000000 -0.064896      6.000000
  0.075711 -0.005408 -0.070304     12.000000
  0.086527 -0.010816 -0.075711     12.000000
  0.097343 -0.016224 -0.081119     12.000000
  0.108159 -0.021632 -0.086527     12.000000
  0.118975 -0.027040 -0.091935     12.000000
  0.129791 -0.032448 -0.097343     12.000000
  0.081119  0.000000 -0.081119      6.000000
  0.091935 -0.005408 -0.086527     12.000000
  0.102751 -0.010816 -0.091935     12.000000
  0.113567 -0.016224 -0.097343     12.000000
  0.124383 -0.021632 -0.102751     12.000000
  0.135199 -0.027040 -0.108159      6.000000
  0.097343  0.000000 -0.097343      6.000000
  0.108159 -0.005408 -0.102751     12.000000
  0.118975 -0.010816 -0.108159     12.000000
  0.129791 -0.016224 -0.113567     12.000000
  0.113567 -0.000000 -0.113567      6.000000
  0.124383 -0.005408 -0.118975     12.000000
  0.135199 -0.010816 -0.124383      6.000000
  0.129791 -0.000000 -0.129791      6.000000
 


--------------------------------------------------------------------------------------------------------




 Dimension of arrays:
   k-points           NKPTS =     65   k-points in BZ     NKDIM =     65   number of bands    NBANDS=    250
   number of dos      NEDOS =    301   number of ions     NIONS =     20
   non local maximal  LDIM  =      6   non local SUM 2l+1 LMDIM =     18
   total plane-waves  NPLWV = 122472
   max r-space proj   IRMAX =      1   max aug-charges    IRDMAX=   8534
   dimension x,y,z NGX =    18 NGY =   18 NGZ =  378
   dimension x,y,z NGXF=    36 NGYF=   36 NGZF=  756
   support grid    NGXF=    36 NGYF=   36 NGZF=  756
   ions per type =              20
   NGX,Y,Z   is equivalent  to a cutoff of   8.58,  8.58,  8.48 a.u.
   NGXF,Y,Z  is equivalent  to a cutoff of  17.16, 17.16, 16.96 a.u.

 SYSTEM =  Pb_2Dslab_20L                           
 POSCAR =  Pb_2Dslab_20L                           

 Startparameter for this run:
   NWRITE =      2    write-flag & timer
   PREC   = normal    normal or accurate (medium, high low for compatibility)
   ISTART =      0    job   : 0-new  1-cont  2-samecut
   ICHARG =      2    charge: 1-file 2-atom 10-const
   ISPIN  =      1    spin polarized calculation?
   LNONCOLLINEAR =      F non collinear calculations
   LSORBIT =      F    spin-orbit coupling
   INIWAV =      1    electr: 0-lowe 1-rand  2-diag
   LASPH  =      F    aspherical Exc in radial PAW
   METAGGA=      F    non-selfconsistent MetaGGA calc.

 Electronic Relaxation 1
   ENCUT  =  400.0 eV  29.40 Ry    5.42 a.u.   5.69  5.69120.82*2*pi/ulx,y,z
   ENINI  =  400.0     initial cutoff
   ENAUG  =  391.9 eV  augmentation charge cutoff
   NELM   =     60;   NELMIN=  2; NELMDL= -5     # of ELM steps 
   EDIFF  = 0.1E-05   stopping-criterion for ELM
   LREAL  =      F    real-space projection
   NLSPLINE    = F    spline interpolate recip. space projectors
   LCOMPAT=      F    compatible to vasp.4.4
   GGA_COMPAT  = T    GGA compatible to vasp.4.4-vasp.4.6
   LMAXPAW     = -100 max onsite density
   LMAXMIX     =    2 max onsite mixed and CHGCAR
   VOSKOWN=      0    Vosko Wilk Nusair interpolation
   ROPT   =    0.00000
 Ionic relaxation
   EDIFFG = 0.1E-04   stopping-criterion for IOM
   NSW    =      0    number of steps for IOM
   NBLOCK =      1;   KBLOCK =      1    inner block; outer block 
   IBRION =     -1    ionic relax: 0-MD 1-quasi-New 2-CG
   NFREE  =      0    steps in history (QN), initial steepest desc. (CG)
   ISIF   =      2    stress and relaxation
   IWAVPR =     10    prediction:  0-non 1-charg 2-wave 3-comb
   ISYM   =      2    0-nonsym 1-usesym 2-fastsym
   LCORR  =      T    Harris-Foulkes like correction to forces

   POTIM  = 0.5000    time-step for ionic-motion
   TEIN   =    0.0    initial temperature
   TEBEG  =    0.0;   TEEND  =   0.0 temperature during run
   SMASS  =  -3.00    Nose mass-parameter (am)
   estimated Nose-frequenzy (Omega)   =  0.10E-29 period in steps =****** mass=  -0.278E-27a.u.
   SCALEE = 1.0000    scale energy and forces
   NPACO  =    256;   APACO  = 16.0  distance and # of slots for P.C.
   PSTRESS=    0.0 pullay stress

  Mass of Ions in am
   POMASS = 207.20
  Ionic Valenz
   ZVAL   =  14.00
  Atomic Wigner-Seitz radii
   RWIGS  =  -1.00
  virtual crystal weights 
   VCA    =   1.00
   NELECT =     280.0000    total number of electrons
   NUPDOWN=      -1.0000    fix difference up-down

 DOS related values:
   EMIN   =  10.00;   EMAX   =-10.00  energy-range for DOS
   EFERMI =   0.00
   ISMEAR =     1;   SIGMA  =   0.10  broadening in eV -4-tet -1-fermi 0-gaus

 Electronic relaxation 2 (details)
   IALGO  =     38    algorithm
   LDIAG  =      T    sub-space diagonalisation (order eigenvalues)
   LSUBROT=      F    optimize rotation matrix (better conditioning)
   TURBO    =      0    0=normal 1=particle mesh
   IRESTART =      0    0=no restart 2=restart with 2 vectors
   NREBOOT  =      0    no. of reboots
   NMIN     =      0    reboot dimension
   EREF     =   0.00    reference energy to select bands
   IMIX   =      4    mixing-type and parameters
     AMIX     =   0.40;   BMIX     =  1.00
     AMIX_MAG =   1.60;   BMIX_MAG =  1.00
     AMIN     =   0.10
     WC   =   100.;   INIMIX=   1;  MIXPRE=   1;  MAXMIX= -45

 Intra band minimization:
   WEIMIN = 0.0000     energy-eigenvalue tresh-hold
   EBREAK =  0.10E-08  absolut break condition
   DEPER  =   0.30     relativ break condition  

   TIME   =   0.40     timestep for ELM

  volume/ion in A,a.u.               =      39.00       263.21
  Fermi-wavevector in a.u.,A,eV,Ry     =   1.163451  2.198604 18.417094  1.353618
  Thomas-Fermi vector in A             =   2.300001

 Write flags
   LWAVE        =      T    write WAVECAR
   LDOWNSAMPLE  =      F    k-point downsampling of WAVECAR
   LCHARG       =      T    write CHGCAR
   LVTOT        =      F    write LOCPOT, total local potential
   LVHAR        =      F    write LOCPOT, Hartree potential only
   LELF         =      F    write electronic localiz. function (ELF)
   LORBIT       =      0    0 simple, 1 ext, 2 COOP (PROOUT), +10 PAW based schemes


 Dipole corrections
   LMONO  =      F    monopole corrections only (constant potential shift)
   LDIPOL =      F    correct potential (dipole corrections)
   IDIPOL =      0    1-x, 2-y, 3-z, 4-all directions 
   EPSILON=  1.0000000 bulk dielectric constant

 Exchange correlation treatment:
   GGA     =    PE    GGA type
   LEXCH   =     8    internal setting for exchange type
   VOSKOWN=      0    Vosko Wilk Nusair interpolation
   LHFCALC =     F    Hartree Fock is set to
   LHFONE  =     F    Hartree Fock one center treatment
   AEXX    =    0.0000 exact exchange contribution

 Linear response parameters
   LEPSILON=     F    determine dielectric tensor
   LRPA    =     F    only Hartree local field effects (RPA)
   LNABLA  =     F    use nabla operator in PAW spheres
   LVEL    =     F    velocity operator in full k-point grid
   LINTERFAST=   F  fast interpolation
   KINTER  =     0    interpolate to denser k-point grid
   CSHIFT  =0.1000    complex shift for real part using Kramers Kronig
   OMEGAMAX=  -1.0    maximum frequency
   DEG_THRESHOLD= 0.2000000E-02 threshold for treating states as degnerate
   RTIME   =   -0.100 relaxation time in fs
  (WPLASMAI=    0.000 imaginary part of plasma frequency in eV, 0.658/RTIME)
   DFIELD  = 0.0000000 0.0000000 0.0000000 field for delta impulse in time

 Orbital magnetization related:
   ORBITALMAG=     F  switch on orbital magnetization
   LCHIMAG   =     F  perturbation theory with respect to B field
   DQ        =  0.001000  dq finite difference perturbation B field
   LLRAUG    =     F  two centre corrections for induced B field


 ----------------------------------------------------------------------------- 
|                                                                             |
|           W    W    AA    RRRRR   N    N  II  N    N   GGGG   !!!           |
|           W    W   A  A   R    R  NN   N  II  NN   N  G    G  !!!           |
|           W    W  A    A  R    R  N N  N  II  N N  N  G       !!!           |
|           W WW W  AAAAAA  RRRRR   N  N N  II  N  N N  G  GGG   !            |
|           WW  WW  A    A  R   R   N   NN  II  N   NN  G    G                |
|           W    W  A    A  R    R  N    N  II  N    N   GGGG   !!!           |
|                                                                             |
|      One of the lattice vectors is very long (>50 A), but AMIN is rather    |
|      large. This can spoil convergence since charge sloshing might occur    |
|      along the long lattice vector. If problems with convergence are        |
|      observed, try to decrease AMIN to a smaller values (e.g. 0.01).        |
|      Note: this warning only applies if the selfconsistency cycle is used.  |
|                                                                             |
 ----------------------------------------------------------------------------- 



--------------------------------------------------------------------------------------------------------


 Static calculation
 charge density and potential will be updated during run
 non-spin polarized calculation
 Variant of blocked Davidson
 Davidson routine will perform the subspace rotation
 perform sub-space diagonalisation
    after iterative eigenvector-optimisation
 modified Broyden-mixing scheme, WC =      100.0
 initial mixing is a Kerker type mixing with AMIX =  0.4000 and BMIX =      1.0000
 Hartree-type preconditioning will be used
 using additional bands          110
 reciprocal scheme for non local part
 use partial core corrections
 calculate Harris-corrections to forces   (improved forces if not selfconsistent)
 use gradient corrections 
 use of overlap-Matrix (Vanderbilt PP)
 Methfessel and Paxton  Order N= 1 SIGMA  =   0.10


--------------------------------------------------------------------------------------------------------


  energy-cutoff  :      400.00
  volume of cell :      780.08
      direct lattice vectors                 reciprocal lattice vectors
     2.465499973 -2.465499973  0.000000000     0.270398164 -0.135199082 -0.135199082
     0.000000000  2.465499973 -2.465499973     0.135199082  0.135199082 -0.270398164
    42.776672050 42.776672050 42.776672050     0.007792409  0.007792409  0.007792409

  length of vectors
     3.486743500  3.486743500 74.091369370     0.331168765  0.331168765  0.013496849



 k-points in units of 2pi/SCALE and weight: Pb_2Dslab_20L                           
   0.00000000  0.00000000 -0.00000000       0.002
   0.01081593 -0.00540796 -0.00540796       0.010
   0.02163185 -0.01081593 -0.01081593       0.010
   0.03244778 -0.01622389 -0.01622389       0.010
   0.04326371 -0.02163185 -0.02163185       0.010
   0.05407963 -0.02703982 -0.02703982       0.010
   0.06489556 -0.03244778 -0.03244778       0.010
   0.07571149 -0.03785574 -0.03785574       0.010
   0.08652741 -0.04326371 -0.04326371       0.010
   0.09734334 -0.04867167 -0.04867167       0.010
   0.10815927 -0.05407963 -0.05407963       0.010
   0.11897519 -0.05948760 -0.05948760       0.010
   0.12979112 -0.06489556 -0.06489556       0.010
   0.01622389  0.00000000 -0.01622389       0.010
   0.02703982 -0.00540796 -0.02163185       0.019
   0.03785574 -0.01081593 -0.02703982       0.019
   0.04867167 -0.01622389 -0.03244778       0.019
   0.05948760 -0.02163185 -0.03785574       0.019
   0.07030352 -0.02703982 -0.04326371       0.019
   0.08111945 -0.03244778 -0.04867167       0.019
   0.09193538 -0.03785574 -0.05407963       0.019
   0.10275130 -0.04326371 -0.05948760       0.019
   0.11356723 -0.04867167 -0.06489556       0.019
   0.12438316 -0.05407963 -0.07030352       0.019
   0.13519908 -0.05948760 -0.07571149       0.010
   0.03244778  0.00000000 -0.03244778       0.010
   0.04326371 -0.00540796 -0.03785574       0.019
   0.05407963 -0.01081593 -0.04326371       0.019
   0.06489556 -0.01622389 -0.04867167       0.019
   0.07571149 -0.02163185 -0.05407963       0.019
   0.08652741 -0.02703982 -0.05948760       0.019
   0.09734334 -0.03244778 -0.06489556       0.019
   0.10815927 -0.03785574 -0.07030352       0.019
   0.11897519 -0.04326371 -0.07571149       0.019
   0.12979112 -0.04867167 -0.08111945       0.019
   0.04867167  0.00000000 -0.04867167       0.010
   0.05948760 -0.00540796 -0.05407963       0.019
   0.07030352 -0.01081593 -0.05948760       0.019
   0.08111945 -0.01622389 -0.06489556       0.019
   0.09193538 -0.02163185 -0.07030352       0.019
   0.10275130 -0.02703982 -0.07571149       0.019
   0.11356723 -0.03244778 -0.08111945       0.019
   0.12438316 -0.03785574 -0.08652741       0.019
   0.13519908 -0.04326371 -0.09193538       0.010
   0.06489556 -0.00000000 -0.06489556       0.010
   0.07571149 -0.00540796 -0.07030352       0.019
   0.08652741 -0.01081593 -0.07571149       0.019
   0.09734334 -0.01622389 -0.08111945       0.019
   0.10815927 -0.02163185 -0.08652741       0.019
   0.11897519 -0.02703982 -0.09193538       0.019
   0.12979112 -0.03244778 -0.09734334       0.019
   0.08111945  0.00000000 -0.08111945       0.010
   0.09193538 -0.00540796 -0.08652741       0.019
   0.10275130 -0.01081593 -0.09193538       0.019
   0.11356723 -0.01622389 -0.09734334       0.019
   0.12438316 -0.02163185 -0.10275130       0.019
   0.13519908 -0.02703982 -0.10815927       0.010
   0.09734334  0.00000000 -0.09734334       0.010
   0.10815927 -0.00540796 -0.10275130       0.019
   0.11897519 -0.01081593 -0.10815927       0.019
   0.12979112 -0.01622389 -0.11356723       0.019
   0.11356723 -0.00000000 -0.11356723       0.010
   0.12438316 -0.00540796 -0.11897519       0.019
   0.13519908 -0.01081593 -0.12438316       0.010
   0.12979112 -0.00000000 -0.12979112       0.010

 k-points in reciprocal lattice and weights: Pb_2Dslab_20L                           
   0.00000000  0.00000000  0.00000000       0.002
   0.04000000  0.00000000  0.00000000       0.010
   0.08000000  0.00000000  0.00000000       0.010
   0.12000000  0.00000000  0.00000000       0.010
   0.16000000  0.00000000  0.00000000       0.010
   0.20000000  0.00000000  0.00000000       0.010
   0.24000000  0.00000000  0.00000000       0.010
   0.28000000  0.00000000  0.00000000       0.010
   0.32000000  0.00000000  0.00000000       0.010
   0.36000000  0.00000000  0.00000000       0.010
   0.40000000  0.00000000  0.00000000       0.010
   0.44000000  0.00000000  0.00000000       0.010
   0.48000000  0.00000000  0.00000000       0.010
   0.04000000  0.04000000  0.00000000       0.010
   0.08000000  0.04000000  0.00000000       0.019
   0.12000000  0.04000000  0.00000000       0.019
   0.16000000  0.04000000  0.00000000       0.019
   0.20000000  0.04000000  0.00000000       0.019
   0.24000000  0.04000000  0.00000000       0.019
   0.28000000  0.04000000  0.00000000       0.019
   0.32000000  0.04000000  0.00000000       0.019
   0.36000000  0.04000000  0.00000000       0.019
   0.40000000  0.04000000  0.00000000       0.019
   0.44000000  0.04000000  0.00000000       0.019
   0.48000000  0.04000000  0.00000000       0.010
   0.08000000  0.08000000  0.00000000       0.010
   0.12000000  0.08000000  0.00000000       0.019
   0.16000000  0.08000000  0.00000000       0.019
   0.20000000  0.08000000  0.00000000       0.019
   0.24000000  0.08000000  0.00000000       0.019
   0.28000000  0.08000000  0.00000000       0.019
   0.32000000  0.08000000  0.00000000       0.019
   0.36000000  0.08000000  0.00000000       0.019
   0.40000000  0.08000000  0.00000000       0.019
   0.44000000  0.08000000  0.00000000       0.019
   0.12000000  0.12000000  0.00000000       0.010
   0.16000000  0.12000000  0.00000000       0.019
   0.20000000  0.12000000  0.00000000       0.019
   0.24000000  0.12000000  0.00000000       0.019
   0.28000000  0.12000000  0.00000000       0.019
   0.32000000  0.12000000  0.00000000       0.019
   0.36000000  0.12000000  0.00000000       0.019
   0.40000000  0.12000000  0.00000000       0.019
   0.44000000  0.12000000  0.00000000       0.010
   0.16000000  0.16000000  0.00000000       0.010
   0.20000000  0.16000000  0.00000000       0.019
   0.24000000  0.16000000  0.00000000       0.019
   0.28000000  0.16000000  0.00000000       0.019
   0.32000000  0.16000000  0.00000000       0.019
   0.36000000  0.16000000  0.00000000       0.019
   0.40000000  0.16000000  0.00000000       0.019
   0.20000000  0.20000000  0.00000000       0.010
   0.24000000  0.20000000  0.00000000       0.019
   0.28000000  0.20000000  0.00000000       0.019
   0.32000000  0.20000000  0.00000000       0.019
   0.36000000  0.20000000  0.00000000       0.019
   0.40000000  0.20000000  0.00000000       0.010
   0.24000000  0.24000000  0.00000000       0.010
   0.28000000  0.24000000  0.00000000       0.019
   0.32000000  0.24000000  0.00000000       0.019
   0.36000000  0.24000000  0.00000000       0.019
   0.28000000  0.28000000  0.00000000       0.010
   0.32000000  0.28000000 -0.00000000       0.019
   0.36000000  0.28000000  0.00000000       0.010
   0.32000000  0.32000000  0.00000000       0.010

 position of ions in fractional coordinates (direct lattice) 
   0.66666695  0.33333389  0.00100113
   0.00000027  0.00000054  0.03765430
   0.33333362  0.66666722  0.07662113
   0.66666695  0.33333389  0.11515777
   0.00000027  0.00000054  0.15370069
   0.33333362  0.66666722  0.19215792
   0.66666695  0.33333389  0.23054211
   0.00000027  0.00000054  0.26902470
   0.33333362  0.66666722  0.30732515
   0.66666695  0.33333389  0.34589073
   0.00000027  0.00000054  0.38417229
   0.33333362  0.66666722  0.42273787
   0.66666695  0.33333389  0.46103832
   0.00000027  0.00000054  0.49952092
   0.33333362  0.66666722  0.53790510
   0.66666695  0.33333389  0.57636234
   0.00000027  0.00000054  0.61490526
   0.33333362  0.66666722  0.65344190
   0.66666695  0.33333389  0.69240872
   0.00000027  0.00000054  0.72906189

 position of ions in cartesian coordinates  (Angst):
   1.68649255 -0.77900743 -0.77900949
   1.61072639  1.61072639  1.61072438
   4.09943081  4.09943075  1.63392877
   6.56973344  4.10423347  4.10423141
   6.57480453  6.57480453  6.57480252
   9.04171054  9.04171049  6.57620851
  11.50549150  9.03999153  9.03998947
  11.50798214 11.50798214 11.50798013
  13.96818139 13.96818133 11.50267935
  16.43972179 13.97422182 13.97421975
  16.43361288 16.43361288 16.43361088
  18.90515334 18.90515328 16.43965130
  21.36535253 18.89985256 18.89985050
  21.36784317 21.36784317 21.36784116
  23.83162418 23.83162413 21.36612215
  26.29853014 23.83303017 23.83302811
  26.30360123 26.30360123 26.30359922
  28.77390392 28.77390386 26.30840188
  31.26260829 28.79710831 28.79710625
  31.18684212 31.18684212 31.18684012



--------------------------------------------------------------------------------------------------------


 k-point  1 :   0.0000 0.0000 0.0000  plane waves:   14209
 k-point  2 :   0.0400 0.0000 0.0000  plane waves:   14201
 k-point  3 :   0.0800 0.0000 0.0000  plane waves:   14194
 k-point  4 :   0.1200 0.0000 0.0000  plane waves:   14222
 k-point  5 :   0.1600 0.0000 0.0000  plane waves:   14222
 k-point  6 :   0.2000 0.0000 0.0000  plane waves:   14226
 k-point  7 :   0.2400 0.0000 0.0000  plane waves:   14218
 k-point  8 :   0.2800 0.0000 0.0000  plane waves:   14194
 k-point  9 :   0.3200 0.0000 0.0000  plane waves:   14186
 k-point 10 :   0.3600 0.0000 0.0000  plane waves:   14160
 k-point 11 :   0.4000 0.0000 0.0000  plane waves:   14188
 k-point 12 :   0.4400 0.0000 0.0000  plane waves:   14210
 k-point 13 :   0.4800 0.0000 0.0000  plane waves:   14202
 k-point 14 :   0.0400 0.0400 0.0000  plane waves:   14185
 k-point 15 :   0.0800 0.0400 0.0000  plane waves:   14217
 k-point 16 :   0.1200 0.0400 0.0000  plane waves:   14219
 k-point 17 :   0.1600 0.0400 0.0000  plane waves:   14221
 k-point 18 :   0.2000 0.0400 0.0000  plane waves:   14209
 k-point 19 :   0.2400 0.0400 0.0000  plane waves:   14208
 k-point 20 :   0.2800 0.0400 0.0000  plane waves:   14191
 k-point 21 :   0.3200 0.0400 0.0000  plane waves:   14172
 k-point 22 :   0.3600 0.0400 0.0000  plane waves:   14165
 k-point 23 :   0.4000 0.0400 0.0000  plane waves:   14192
 k-point 24 :   0.4400 0.0400 0.0000  plane waves:   14188
 k-point 25 :   0.4800 0.0400 0.0000  plane waves:   14210
 k-point 26 :   0.0800 0.0800 0.0000  plane waves:   14235
 k-point 27 :   0.1200 0.0800 0.0000  plane waves:   14233
 k-point 28 :   0.1600 0.0800 0.0000  plane waves:   14225
 k-point 29 :   0.2000 0.0800 0.0000  plane waves:   14207
 k-point 30 :   0.2400 0.0800 0.0000  plane waves:   14192
 k-point 31 :   0.2800 0.0800 0.0000  plane waves:   14183
 k-point 32 :   0.3200 0.0800 0.0000  plane waves:   14129
 k-point 33 :   0.3600 0.0800 0.0000  plane waves:   14167
 k-point 34 :   0.4000 0.0800 0.0000  plane waves:   14188
 k-point 35 :   0.4400 0.0800 0.0000  plane waves:   14216
 k-point 36 :   0.1200 0.1200 0.0000  plane waves:   14229
 k-point 37 :   0.1600 0.1200 0.0000  plane waves:   14211
 k-point 38 :   0.2000 0.1200 0.0000  plane waves:   14198
 k-point 39 :   0.2400 0.1200 0.0000  plane waves:   14170
 k-point 40 :   0.2800 0.1200 0.0000  plane waves:   14117
 k-point 41 :   0.3200 0.1200 0.0000  plane waves:   14118
 k-point 42 :   0.3600 0.1200 0.0000  plane waves:   14163
 k-point 43 :   0.4000 0.1200 0.0000  plane waves:   14212
 k-point 44 :   0.4400 0.1200 0.0000  plane waves:   14198
 k-point 45 :   0.1600 0.1600 0.0000  plane waves:   14200
 k-point 46 :   0.2000 0.1600 0.0000  plane waves:   14190
 k-point 47 :   0.2400 0.1600 0.0000  plane waves:   14140
 k-point 48 :   0.2800 0.1600 0.0000  plane waves:   14103
 k-point 49 :   0.3200 0.1600 0.0000  plane waves:   14109
 k-point 50 :   0.3600 0.1600 0.0000  plane waves:   14149
 k-point 51 :   0.4000 0.1600 0.0000  plane waves:   14184
 k-point 52 :   0.2000 0.2000 0.0000  plane waves:   14142
 k-point 53 :   0.2400 0.2000 0.0000  plane waves:   14124
 k-point 54 :   0.2800 0.2000 0.0000  plane waves:   14117
 k-point 55 :   0.3200 0.2000 0.0000  plane waves:   14119
 k-point 56 :   0.3600 0.2000 0.0000  plane waves:   14135
 k-point 57 :   0.4000 0.2000 0.0000  plane waves:   14134
 k-point 58 :   0.2400 0.2400 0.0000  plane waves:   14120
 k-point 59 :   0.2800 0.2400 0.0000  plane waves:   14109
 k-point 60 :   0.3200 0.2400 0.0000  plane waves:   14100
 k-point 61 :   0.3600 0.2400 0.0000  plane waves:   14118
 k-point 62 :   0.2800 0.2800 0.0000  plane waves:   14098
 k-point 63 :   0.3200 0.2800-0.0000  plane waves:   14086
 k-point 64 :   0.3600 0.2800 0.0000  plane waves:   14098
 k-point 65 :   0.3200 0.3200 0.0000  plane waves:   14070

 maximum and minimum number of plane-waves per node :      2390     2330

 maximum number of plane-waves:     14235
 maximum index in each direction: 
   IXMAX=    5   IYMAX=    5   IZMAX=  120
   IXMIN=   -6   IYMIN=   -5   IZMIN= -120


 parallel 3D FFT for wavefunctions:
    minimum data exchange during FFTs selected (reduces bandwidth)
 parallel 3D FFT for charge:
    minimum data exchange during FFTs selected (reduces bandwidth)


 total amount of memory used by VASP MPI-rank0   187084. kBytes
=======================================================================

   base      :      30000. kBytes
   nonl-proj :      23135. kBytes
   fftplans  :       2273. kBytes
   grid      :       3434. kBytes
   one-center:         62. kBytes
   wavefun   :     128180. kBytes

     INWAV:  cpu time    0.0000: real time    0.0000
 Broyden mixing: mesh for mixing (old mesh)
   NGX = 11   NGY = 11   NGZ =241
  (NGX  = 36   NGY  = 36   NGZ  =756)
  gives a total of  29161 points

 initial charge density was supplied:
 charge density of overlapping atoms calculated
 number of electron     280.0000000 magnetization 
 keeping initial charge density in first step


--------------------------------------------------------------------------------------------------------


 Maximum index for augmentation-charges          801 (set IRDMAX)


--------------------------------------------------------------------------------------------------------


 First call to EWALD:  gamma=   0.193
 Maximum number of real-space cells 7x 7x 1
 Maximum number of reciprocal cells 1x 1x19

    FEWALD:  cpu time    0.0025: real time    0.0025


--------------------------------------- Iteration      1(   1)  ---------------------------------------


    POTLOK:  cpu time    0.0401: real time    0.0402
    SETDIJ:  cpu time    0.0034: real time    0.0034
     EDDAV:  cpu time   63.4619: real time   63.5229
       DOS:  cpu time    0.0091: real time    0.0091
    --------------------------------------------
      LOOP:  cpu time   63.5145: real time   63.5756

 eigenvalue-minimisations  : 32670
 total energy-change (2. order) : 0.3454177E+04  (-0.1053067E+05)
 number of electron     280.0000000 magnetization 
 augmentation part      280.0000000 magnetization 

 Free energy of the ion-electron system (eV)
  ---------------------------------------------------
  alpha Z        PSCENC =       841.29232037
  Ewald energy   TEWEN  =    198660.53375098
  -Hartree energ DENC   =   -231428.50577126
  -exchange      EXHF   =         0.00000000
  -V(xc)+E(xc)   XCENC  =       760.73929483
  PAW double counting   =     28708.20636287   -28374.82945683
  entropy T*S    EENTRO =         0.00237605
  eigenvalues    EBANDS =      1054.50558568
  atomic energy  EATOM  =     33232.23268158
  Solvation  Ediel_sol  =         0.00000000
  ---------------------------------------------------
  free energy    TOTEN  =      3454.17714428 eV

  energy without entropy =     3454.17476823  energy(sigma->0) =     3454.17635227


--------------------------------------------------------------------------------------------------------




--------------------------------------- Iteration      1(   2)  ---------------------------------------


     EDDAV:  cpu time   63.1146: real time   63.1662
       DOS:  cpu time    0.0093: real time    0.0093
    --------------------------------------------
      LOOP:  cpu time   63.1239: real time   63.1755

 eigenvalue-minimisations  : 32500
 total energy-change (2. order) :-0.3041816E+04  (-0.2914234E+04)
 number of electron     280.0000000 magnetization 
 augmentation part      280.0000000 magnetization 

 Free energy of the ion-electron system (eV)
  ---------------------------------------------------
  alpha Z        PSCENC =       841.29232037
  Ewald energy   TEWEN  =    198660.53375098
  -Hartree energ DENC   =   -231428.50577126
  -exchange      EXHF   =         0.00000000
  -V(xc)+E(xc)   XCENC  =       760.73929483
  PAW double counting   =     28708.20636287   -28374.82945683
  entropy T*S    EENTRO =        -0.00115446
  eigenvalues    EBANDS =     -1987.30735574
  atomic energy  EATOM  =     33232.23268158
  Solvation  Ediel_sol  =         0.00000000
  ---------------------------------------------------
  free energy    TOTEN  =       412.36067235 eV

  energy without entropy =      412.36182681  energy(sigma->0) =      412.36105717


--------------------------------------------------------------------------------------------------------




--------------------------------------- Iteration      1(   3)  ---------------------------------------


     EDDAV:  cpu time   68.0636: real time   68.1167
       DOS:  cpu time    0.0100: real time    0.0100
    --------------------------------------------
      LOOP:  cpu time   68.0736: real time   68.1267

 eigenvalue-minimisations  : 35610
 total energy-change (2. order) :-0.4528452E+03  (-0.4349627E+03)
 number of electron     280.0000000 magnetization 
 augmentation part      280.0000000 magnetization 

 Free energy of the ion-electron system (eV)
  ---------------------------------------------------
  alpha Z        PSCENC =       841.29232037
  Ewald energy   TEWEN  =    198660.53375098
  -Hartree energ DENC   =   -231428.50577126
  -exchange      EXHF   =         0.00000000
  -V(xc)+E(xc)   XCENC  =       760.73929483
  PAW double counting   =     28708.20636287   -28374.82945683
  entropy T*S    EENTRO =        -0.00159623
  eigenvalues    EBANDS =     -2440.15209069
  atomic energy  EATOM  =     33232.23268158
  Solvation  Ediel_sol  =         0.00000000
  ---------------------------------------------------
  free energy    TOTEN  =       -40.48450437 eV

  energy without entropy =      -40.48290814  energy(sigma->0) =      -40.48397229


--------------------------------------------------------------------------------------------------------




--------------------------------------- Iteration      1(   4)  ---------------------------------------


     EDDAV:  cpu time   75.2622: real time   75.3165
       DOS:  cpu time    0.0101: real time    0.0101
    --------------------------------------------
      LOOP:  cpu time   75.2723: real time   75.3266

 eigenvalue-minimisations  : 39830
 total energy-change (2. order) :-0.2924749E+02  (-0.2895630E+02)
 number of electron     280.0000000 magnetization 
 augmentation part      280.0000000 magnetization 

 Free energy of the ion-electron system (eV)
  ---------------------------------------------------
  alpha Z        PSCENC =       841.29232037
  Ewald energy   TEWEN  =    198660.53375098
  -Hartree energ DENC   =   -231428.50577126
  -exchange      EXHF   =         0.00000000
  -V(xc)+E(xc)   XCENC  =       760.73929483
  PAW double counting   =     28708.20636287   -28374.82945683
  entropy T*S    EENTRO =         0.00073758
  eigenvalues    EBANDS =     -2469.40191891
  atomic energy  EATOM  =     33232.23268158
  Solvation  Ediel_sol  =         0.00000000
  ---------------------------------------------------
  free energy    TOTEN  =       -69.73199878 eV

  energy without entropy =      -69.73273636  energy(sigma->0) =      -69.73224464


--------------------------------------------------------------------------------------------------------




--------------------------------------- Iteration      1(   5)  ---------------------------------------


     EDDAV:  cpu time   78.8484: real time   78.9048
       DOS:  cpu time    0.0100: real time    0.0100
    CHARGE:  cpu time    1.0219: real time    1.0222
    MIXING:  cpu time    0.0005: real time    0.0005
    --------------------------------------------
      LOOP:  cpu time   79.8808: real time   79.9374

 eigenvalue-minimisations  : 42370
 total energy-change (2. order) :-0.1165949E+01  (-0.1165573E+01)
 number of electron     279.9999489 magnetization 
 augmentation part      111.0891357 magnetization 

 Broyden mixing:
  rms(total) = 0.24515E+00    rms(broyden)= 0.24504E+00
  rms(prec ) = 0.25357E+00
  weight for this iteration     100.00

 Free energy of the ion-electron system (eV)
  ---------------------------------------------------
  alpha Z        PSCENC =       841.29232037
  Ewald energy   TEWEN  =    198660.53375098
  -Hartree energ DENC   =   -231428.50577126
  -exchange      EXHF   =         0.00000000
  -V(xc)+E(xc)   XCENC  =       760.73929483
  PAW double counting   =     28708.20636287   -28374.82945683
  entropy T*S    EENTRO =         0.00086247
  eigenvalues    EBANDS =     -2470.56799287
  atomic energy  EATOM  =     33232.23268158
  Solvation  Ediel_sol  =         0.00000000
  ---------------------------------------------------
  free energy    TOTEN  =       -70.89794785 eV

  energy without entropy =      -70.89881032  energy(sigma->0) =      -70.89823534


--------------------------------------------------------------------------------------------------------




--------------------------------------- Iteration      1(   6)  ---------------------------------------


    POTLOK:  cpu time    0.0285: real time    0.0285
    SETDIJ:  cpu time    0.0032: real time    0.0032
     EDDAV:  cpu time   98.7459: real time   98.8212
       DOS:  cpu time    0.0103: real time    0.0103
    CHARGE:  cpu time    1.0395: real time    1.0398
    MIXING:  cpu time    0.0005: real time    0.0005
    --------------------------------------------
      LOOP:  cpu time   99.8279: real time   99.9036

 eigenvalue-minimisations  : 54950
 total energy-change (2. order) :-0.2941875E+01  (-0.1503052E+01)
 number of electron     279.9999488 magnetization 
 augmentation part      111.2310319 magnetization 

 Broyden mixing:
  rms(total) = 0.39303E+00    rms(broyden)= 0.39303E+00
  rms(prec ) = 0.11860E+01
  weight for this iteration     100.00

 eigenvalues of (default mixing * dielectric matrix)
  average eigenvalue GAMMA=   0.4091
  0.4091

 Free energy of the ion-electron system (eV)
  ---------------------------------------------------
  alpha Z        PSCENC =       841.29232037
  Ewald energy   TEWEN  =    198660.53375098
  -Hartree energ DENC   =   -231508.96842985
  -exchange      EXHF   =         0.00000000
  -V(xc)+E(xc)   XCENC  =       758.92755775
  PAW double counting   =     29277.95790906   -28949.69573951
  entropy T*S    EENTRO =         0.00157629
  eigenvalues    EBANDS =     -2386.12144918
  atomic energy  EATOM  =     33232.23268158
  Solvation  Ediel_sol  =         0.00000000
  ---------------------------------------------------
  free energy    TOTEN  =       -73.83982251 eV

  energy without entropy =      -73.84139880  energy(sigma->0) =      -73.84034794


--------------------------------------------------------------------------------------------------------




--------------------------------------- Iteration      1(   7)  ---------------------------------------


    POTLOK:  cpu time    0.0286: real time    0.0286
    SETDIJ:  cpu time    0.0032: real time    0.0032
     EDDAV:  cpu time   92.4834: real time   92.6885
       DOS:  cpu time    0.0100: real time    0.0099
    CHARGE:  cpu time    1.0292: real time    1.0295
    MIXING:  cpu time    0.0005: real time    0.0005
    --------------------------------------------
      LOOP:  cpu time   93.5548: real time   93.7603

 eigenvalue-minimisations  : 51050
 total energy-change (2. order) : 0.2136436E+01  (-0.2688172E+01)
 number of electron     279.9999487 magnetization 
 augmentation part      111.2243414 magnetization 

 Broyden mixing:
  rms(total) = 0.23408E+00    rms(broyden)= 0.23407E+00
  rms(prec ) = 0.66148E+00
  weight for this iteration     100.00

 eigenvalues of (default mixing * dielectric matrix)
  average eigenvalue GAMMA=   0.8170
  1.5943  0.0397

 Free energy of the ion-electron system (eV)
  ---------------------------------------------------
  alpha Z        PSCENC =       841.29232037
  Ewald energy   TEWEN  =    198660.53375098
  -Hartree energ DENC   =   -231388.41343614
  -exchange      EXHF   =         0.00000000
  -V(xc)+E(xc)   XCENC  =       758.87333491
  PAW double counting   =     29297.46685965   -28969.38014903
  entropy T*S    EENTRO =         0.00054203
  eigenvalues    EBANDS =     -2504.30929100
  atomic energy  EATOM  =     33232.23268158
  Solvation  Ediel_sol  =         0.00000000
  ---------------------------------------------------
  free energy    TOTEN  =       -71.70338664 eV

  energy without entropy =      -71.70392867  energy(sigma->0) =      -71.70356731


--------------------------------------------------------------------------------------------------------




--------------------------------------- Iteration      1(   8)  ---------------------------------------


    POTLOK:  cpu time    0.0288: real time    0.0288
    SETDIJ:  cpu time    0.0032: real time    0.0032
     EDDAV:  cpu time   97.7707: real time   97.8545
       DOS:  cpu time    0.0106: real time    0.0106
    CHARGE:  cpu time    1.0146: real time    1.0149
    MIXING:  cpu time    0.0010: real time    0.0010
    --------------------------------------------
      LOOP:  cpu time   98.8289: real time   98.9132

 eigenvalue-minimisations  : 54600
 total energy-change (2. order) :-0.1208252E+01  (-0.1358511E+01)
 number of electron     279.9999488 magnetization 
 augmentation part      111.2986883 magnetization 

 Broyden mixing:
  rms(total) = 0.31234E+00    rms(broyden)= 0.31234E+00
  rms(prec ) = 0.58362E+00
  weight for this iteration     100.00

 eigenvalues of (default mixing * dielectric matrix)
  average eigenvalue GAMMA=   0.6870
  1.8474  0.1756  0.0381

 Free energy of the ion-electron system (eV)
  ---------------------------------------------------
  alpha Z        PSCENC =       841.29232037
  Ewald energy   TEWEN  =    198660.53375098
  -Hartree energ DENC   =   -231343.03566524
  -exchange      EXHF   =         0.00000000
  -V(xc)+E(xc)   XCENC  =       758.10736921
  PAW double counting   =     29593.97091301   -29268.56304829
  entropy T*S    EENTRO =        -0.00300213
  eigenvalues    EBANDS =     -2547.44695811
  atomic energy  EATOM  =     33232.23268158
  Solvation  Ediel_sol  =         0.00000000
  ---------------------------------------------------
  free energy    TOTEN  =       -72.91163860 eV

  energy without entropy =      -72.90863647  energy(sigma->0) =      -72.91063789


--------------------------------------------------------------------------------------------------------




--------------------------------------- Iteration      1(   9)  ---------------------------------------


    POTLOK:  cpu time    0.0374: real time    0.0375
    SETDIJ:  cpu time    0.0033: real time    0.0033
     EDDAV:  cpu time   94.2611: real time   94.3292
       DOS:  cpu time    0.0096: real time    0.0096
    CHARGE:  cpu time    1.0310: real time    1.0314
    MIXING:  cpu time    0.0006: real time    0.0006
    --------------------------------------------
      LOOP:  cpu time   95.3430: real time   95.4115

 eigenvalue-minimisations  : 52100
 total energy-change (2. order) : 0.2203332E+01  (-0.6011256E+00)
 number of electron     279.9999487 magnetization 
 augmentation part      111.3415447 magnetization 

 Broyden mixing:
  rms(total) = 0.78858E-01    rms(broyden)= 0.78857E-01
  rms(prec ) = 0.11073E+00
  weight for this iteration     100.00

 eigenvalues of (default mixing * dielectric matrix)
  average eigenvalue GAMMA=   0.6747
  1.9487  0.5624  0.0382  0.1496

 Free energy of the ion-electron system (eV)
  ---------------------------------------------------
  alpha Z        PSCENC =       841.29232037
  Ewald energy   TEWEN  =    198660.53375098
  -Hartree energ DENC   =   -231388.21434941
  -exchange      EXHF   =         0.00000000
  -V(xc)+E(xc)   XCENC  =       757.42220978
  PAW double counting   =     29875.08755309   -29552.21665103
  entropy T*S    EENTRO =         0.00017537
  eigenvalues    EBANDS =     -2496.84599737
  atomic energy  EATOM  =     33232.23268158
  Solvation  Ediel_sol  =         0.00000000
  ---------------------------------------------------
  free energy    TOTEN  =       -70.70830664 eV

  energy without entropy =      -70.70848201  energy(sigma->0) =      -70.70836509


--------------------------------------------------------------------------------------------------------




--------------------------------------- Iteration      1(  10)  ---------------------------------------


    POTLOK:  cpu time    0.0290: real time    0.0290
    SETDIJ:  cpu time    0.0032: real time    0.0032
     EDDAV:  cpu time   91.1158: real time   91.1835
       DOS:  cpu time    0.0099: real time    0.0099
    CHARGE:  cpu time    1.0244: real time    1.0247
    MIXING:  cpu time    0.0006: real time    0.0006
    --------------------------------------------
      LOOP:  cpu time   92.1828: real time   92.2509

 eigenvalue-minimisations  : 49910
 total energy-change (2. order) : 0.8871842E-01  (-0.3753919E-01)
 number of electron     279.9999487 magnetization 
 augmentation part      111.3525090 magnetization 

 Broyden mixing:
  rms(total) = 0.42425E-01    rms(broyden)= 0.42424E-01
  rms(prec ) = 0.48709E-01
  weight for this iteration     100.00

 eigenvalues of (default mixing * dielectric matrix)
  average eigenvalue GAMMA=   0.7413
  1.9579  1.2019  0.0382  0.3581  0.1506

 Free energy of the ion-electron system (eV)
  ---------------------------------------------------
  alpha Z        PSCENC =       841.29232037
  Ewald energy   TEWEN  =    198660.53375098
  -Hartree energ DENC   =   -231399.55761827
  -exchange      EXHF   =         0.00000000
  -V(xc)+E(xc)   XCENC  =       757.26362854
  PAW double counting   =     29970.99980010   -29648.94164990
  entropy T*S    EENTRO =         0.00144025
  eigenvalues    EBANDS =     -2484.44394187
  atomic energy  EATOM  =     33232.23268158
  Solvation  Ediel_sol  =         0.00000000
  ---------------------------------------------------
  free energy    TOTEN  =       -70.61958822 eV

  energy without entropy =      -70.62102847  energy(sigma->0) =      -70.62006830


--------------------------------------------------------------------------------------------------------




--------------------------------------- Iteration      1(  11)  ---------------------------------------


    POTLOK:  cpu time    0.0288: real time    0.0289
    SETDIJ:  cpu time    0.0033: real time    0.0033
     EDDAV:  cpu time   82.9669: real time   83.0265
       DOS:  cpu time    0.0104: real time    0.0104
    CHARGE:  cpu time    1.0199: real time    1.0202
    MIXING:  cpu time    0.0006: real time    0.0006
    --------------------------------------------
      LOOP:  cpu time   84.0299: real time   84.0899

 eigenvalue-minimisations  : 45230
 total energy-change (2. order) : 0.1353301E-02  (-0.1409709E-01)
 number of electron     279.9999487 magnetization 
 augmentation part      111.3567467 magnetization 

 Broyden mixing:
  rms(total) = 0.29265E-01    rms(broyden)= 0.29263E-01
  rms(prec ) = 0.34202E-01
  weight for this iteration     100.00

 eigenvalues of (default mixing * dielectric matrix)
  average eigenvalue GAMMA=   0.9321
  2.2212  2.2212  0.6252  0.0382  0.3369  0.1496

 Free energy of the ion-electron system (eV)
  ---------------------------------------------------
  alpha Z        PSCENC =       841.29232037
  Ewald energy   TEWEN  =    198660.53375098
  -Hartree energ DENC   =   -231404.39809229
  -exchange      EXHF   =         0.00000000
  -V(xc)+E(xc)   XCENC  =       757.25778759
  PAW double counting   =     30031.90309741   -29710.32750860
  entropy T*S    EENTRO =         0.00123891
  eigenvalues    EBANDS =     -2479.11351088
  atomic energy  EATOM  =     33232.23268158
  Solvation  Ediel_sol  =         0.00000000
  ---------------------------------------------------
  free energy    TOTEN  =       -70.61823492 eV

  energy without entropy =      -70.61947383  energy(sigma->0) =      -70.61864789


--------------------------------------------------------------------------------------------------------




--------------------------------------- Iteration      1(  12)  ---------------------------------------


    POTLOK:  cpu time    0.0289: real time    0.0289
    SETDIJ:  cpu time    0.0032: real time    0.0032
     EDDAV:  cpu time   76.8295: real time   76.8916
       DOS:  cpu time    0.0104: real time    0.0104
    CHARGE:  cpu time    1.0314: real time    1.0318
    MIXING:  cpu time    0.0009: real time    0.0009
    --------------------------------------------
      LOOP:  cpu time   77.9044: real time   77.9668

 eigenvalue-minimisations  : 41310
 total energy-change (2. order) :-0.9100892E-03  (-0.4778083E-02)
 number of electron     279.9999487 magnetization 
 augmentation part      111.3382699 magnetization 

 Broyden mixing:
  rms(total) = 0.13988E-01    rms(broyden)= 0.13986E-01
  rms(prec ) = 0.21172E-01
  weight for this iteration     100.00

 eigenvalues of (default mixing * dielectric matrix)
  average eigenvalue GAMMA=   0.9285
  2.6736  1.9718  0.6663  0.6663  0.0382  0.1497  0.3335

 Free energy of the ion-electron system (eV)
  ---------------------------------------------------
  alpha Z        PSCENC =       841.29232037
  Ewald energy   TEWEN  =    198660.53375098
  -Hartree energ DENC   =   -231414.22436515
  -exchange      EXHF   =         0.00000000
  -V(xc)+E(xc)   XCENC  =       757.35532546
  PAW double counting   =     30100.16973269   -29779.11462396
  entropy T*S    EENTRO =         0.00140546
  eigenvalues    EBANDS =     -2468.86537244
  atomic energy  EATOM  =     33232.23268158
  Solvation  Ediel_sol  =         0.00000000
  ---------------------------------------------------
  free energy    TOTEN  =       -70.61914501 eV

  energy without entropy =      -70.62055048  energy(sigma->0) =      -70.61961350


--------------------------------------------------------------------------------------------------------




--------------------------------------- Iteration      1(  13)  ---------------------------------------


    POTLOK:  cpu time    0.0298: real time    0.0298
    SETDIJ:  cpu time    0.0032: real time    0.0032
     EDDAV:  cpu time   74.9718: real time   75.0283
       DOS:  cpu time    0.0105: real time    0.0105
    CHARGE:  cpu time    1.0324: real time    1.0328
    MIXING:  cpu time    0.0010: real time    0.0010
    --------------------------------------------
      LOOP:  cpu time   76.0487: real time   76.1055

 eigenvalue-minimisations  : 39850
 total energy-change (2. order) : 0.9655085E-03  (-0.1202072E-02)
 number of electron     279.9999487 magnetization 
 augmentation part      111.3330086 magnetization 

 Broyden mixing:
  rms(total) = 0.73551E-02    rms(broyden)= 0.73543E-02
  rms(prec ) = 0.12678E-01
  weight for this iteration     100.00

 eigenvalues of (default mixing * dielectric matrix)
  average eigenvalue GAMMA=   0.9318
  2.7013  1.7726  0.9496  0.9496  0.0382  0.5607  0.1497  0.3331

 Free energy of the ion-electron system (eV)
  ---------------------------------------------------
  alpha Z        PSCENC =       841.29232037
  Ewald energy   TEWEN  =    198660.53375098
  -Hartree energ DENC   =   -231416.72938566
  -exchange      EXHF   =         0.00000000
  -V(xc)+E(xc)   XCENC  =       757.34201271
  PAW double counting   =     30124.32725171   -29803.44320310
  entropy T*S    EENTRO =         0.00122909
  eigenvalues    EBANDS =     -2466.17483719
  atomic energy  EATOM  =     33232.23268158
  Solvation  Ediel_sol  =         0.00000000
  ---------------------------------------------------
  free energy    TOTEN  =       -70.61817950 eV

  energy without entropy =      -70.61940859  energy(sigma->0) =      -70.61858920


--------------------------------------------------------------------------------------------------------




--------------------------------------- Iteration      1(  14)  ---------------------------------------


    POTLOK:  cpu time    0.0292: real time    0.0292
    SETDIJ:  cpu time    0.0032: real time    0.0032
     EDDAV:  cpu time   74.9707: real time   75.0297
       DOS:  cpu time    0.0099: real time    0.0099
    CHARGE:  cpu time    1.0269: real time    1.0273
    MIXING:  cpu time    0.0007: real time    0.0007
    --------------------------------------------
      LOOP:  cpu time   76.0407: real time   76.1001

 eigenvalue-minimisations  : 39980
 total energy-change (2. order) :-0.5250411E-04  (-0.4018436E-03)
 number of electron     279.9999487 magnetization 
 augmentation part      111.3326228 magnetization 

 Broyden mixing:
  rms(total) = 0.58250E-02    rms(broyden)= 0.58247E-02
  rms(prec ) = 0.93153E-02
  weight for this iteration     100.00

 eigenvalues of (default mixing * dielectric matrix)
  average eigenvalue GAMMA=   0.9705
  2.6554  1.8864  1.3957  1.0516  0.0382  0.1497  0.3326  0.6521  0.5729

 Free energy of the ion-electron system (eV)
  ---------------------------------------------------
  alpha Z        PSCENC =       841.29232037
  Ewald energy   TEWEN  =    198660.53375098
  -Hartree energ DENC   =   -231417.82081597
  -exchange      EXHF   =         0.00000000
  -V(xc)+E(xc)   XCENC  =       757.31760804
  PAW double counting   =     30122.96640986   -29802.05017046
  entropy T*S    EENTRO =         0.00127367
  eigenvalues    EBANDS =     -2465.09129008
  atomic energy  EATOM  =     33232.23268158
  Solvation  Ediel_sol  =         0.00000000
  ---------------------------------------------------
  free energy    TOTEN  =       -70.61823201 eV

  energy without entropy =      -70.61950568  energy(sigma->0) =      -70.61865657


--------------------------------------------------------------------------------------------------------




--------------------------------------- Iteration      1(  15)  ---------------------------------------


    POTLOK:  cpu time    0.0292: real time    0.0293
    SETDIJ:  cpu time    0.0033: real time    0.0033
     EDDAV:  cpu time   75.9158: real time   75.9722
       DOS:  cpu time    0.0103: real time    0.0103
    CHARGE:  cpu time    1.0195: real time    1.0198
    MIXING:  cpu time    0.0008: real time    0.0008
    --------------------------------------------
      LOOP:  cpu time   76.9789: real time   77.0356

 eigenvalue-minimisations  : 40700
 total energy-change (2. order) : 0.2095535E-03  (-0.4107135E-04)
 number of electron     279.9999487 magnetization 
 augmentation part      111.3319977 magnetization 

 Broyden mixing:
  rms(total) = 0.35983E-02    rms(broyden)= 0.35982E-02
  rms(prec ) = 0.69663E-02
  weight for this iteration     100.00

 eigenvalues of (default mixing * dielectric matrix)
  average eigenvalue GAMMA=   1.1121
  2.8608  2.8608  1.6999  0.9616  0.9616  0.0382  0.1497  0.3327  0.6875  0.5677

 Free energy of the ion-electron system (eV)
  ---------------------------------------------------
  alpha Z        PSCENC =       841.29232037
  Ewald energy   TEWEN  =    198660.53375098
  -Hartree energ DENC   =   -231419.93284840
  -exchange      EXHF   =         0.00000000
  -V(xc)+E(xc)   XCENC  =       757.32054187
  PAW double counting   =     30115.88393557   -29794.87871358
  entropy T*S    EENTRO =         0.00125010
  eigenvalues    EBANDS =     -2463.07094097
  atomic energy  EATOM  =     33232.23268158
  Solvation  Ediel_sol  =         0.00000000
  ---------------------------------------------------
  free energy    TOTEN  =       -70.61802245 eV

  energy without entropy =      -70.61927256  energy(sigma->0) =      -70.61843916


--------------------------------------------------------------------------------------------------------




--------------------------------------- Iteration      1(  16)  ---------------------------------------


    POTLOK:  cpu time    0.0290: real time    0.0290
    SETDIJ:  cpu time    0.0032: real time    0.0032
     EDDAV:  cpu time   77.5681: real time   77.6445
       DOS:  cpu time    0.0099: real time    0.0099
    CHARGE:  cpu time    1.0285: real time    1.0289
    MIXING:  cpu time    0.0011: real time    0.0011
    --------------------------------------------
      LOOP:  cpu time   78.6399: real time   78.7167

 eigenvalue-minimisations  : 41660
 total energy-change (2. order) : 0.1739337E-03  (-0.5603357E-04)
 number of electron     279.9999487 magnetization 
 augmentation part      111.3322402 magnetization 

 Broyden mixing:
  rms(total) = 0.16296E-02    rms(broyden)= 0.16295E-02
  rms(prec ) = 0.20107E-02
  weight for this iteration     100.00

 eigenvalues of (default mixing * dielectric matrix)
  average eigenvalue GAMMA=   1.1088
  2.7308  2.7308  1.4865  1.4865  1.0077  1.0077  0.0382  0.1497  0.3327  0.5812
  0.6444

 Free energy of the ion-electron system (eV)
  ---------------------------------------------------
  alpha Z        PSCENC =       841.29232037
  Ewald energy   TEWEN  =    198660.53375098
  -Hartree energ DENC   =   -231422.90256010
  -exchange      EXHF   =         0.00000000
  -V(xc)+E(xc)   XCENC  =       757.32868965
  PAW double counting   =     30109.44802717   -29788.36170327
  entropy T*S    EENTRO =         0.00127222
  eigenvalues    EBANDS =     -2460.19032712
  atomic energy  EATOM  =     33232.23268158
  Solvation  Ediel_sol  =         0.00000000
  ---------------------------------------------------
  free energy    TOTEN  =       -70.61784852 eV

  energy without entropy =      -70.61912074  energy(sigma->0) =      -70.61827259


--------------------------------------------------------------------------------------------------------




--------------------------------------- Iteration      1(  17)  ---------------------------------------


    POTLOK:  cpu time    0.0357: real time    0.0357
    SETDIJ:  cpu time    0.0033: real time    0.0033
     EDDAV:  cpu time   68.6315: real time   68.6822
       DOS:  cpu time    0.0103: real time    0.0103
    CHARGE:  cpu time    1.0193: real time    1.0197
    MIXING:  cpu time    0.0008: real time    0.0008
    --------------------------------------------
      LOOP:  cpu time   69.7010: real time   69.7520

 eigenvalue-minimisations  : 35930
 total energy-change (2. order) :-0.8522114E-04  (-0.2611226E-04)
 number of electron     279.9999487 magnetization 
 augmentation part      111.3322389 magnetization 

 Broyden mixing:
  rms(total) = 0.14873E-02    rms(broyden)= 0.14870E-02
  rms(prec ) = 0.20378E-02
  weight for this iteration     100.00

 eigenvalues of (default mixing * dielectric matrix)
  average eigenvalue GAMMA=   1.0650
  2.6759  2.6759  1.7365  1.5102  1.0757  1.0166  0.0382  0.1497  0.6467  0.5800
  0.3328  0.3414

 Free energy of the ion-electron system (eV)
  ---------------------------------------------------
  alpha Z        PSCENC =       841.29232037
  Ewald energy   TEWEN  =    198660.53375098
  -Hartree energ DENC   =   -231423.84150224
  -exchange      EXHF   =         0.00000000
  -V(xc)+E(xc)   XCENC  =       757.33079628
  PAW double counting   =     30110.48008693   -29789.40882420
  entropy T*S    EENTRO =         0.00125872
  eigenvalues    EBANDS =     -2459.23850217
  atomic energy  EATOM  =     33232.23268158
  Solvation  Ediel_sol  =         0.00000000
  ---------------------------------------------------
  free energy    TOTEN  =       -70.61793374 eV

  energy without entropy =      -70.61919246  energy(sigma->0) =      -70.61835331


--------------------------------------------------------------------------------------------------------




--------------------------------------- Iteration      1(  18)  ---------------------------------------


    POTLOK:  cpu time    0.0290: real time    0.0291
    SETDIJ:  cpu time    0.0033: real time    0.0033
     EDDAV:  cpu time   71.8856: real time   71.9512
       DOS:  cpu time    0.0103: real time    0.0103
    CHARGE:  cpu time    1.0271: real time    1.0275
    MIXING:  cpu time    0.0008: real time    0.0008
    --------------------------------------------
      LOOP:  cpu time   72.9561: real time   73.0220

 eigenvalue-minimisations  : 38200
 total energy-change (2. order) :-0.6696284E-04  (-0.2779130E-05)
 number of electron     279.9999487 magnetization 
 augmentation part      111.3325397 magnetization 

 Broyden mixing:
  rms(total) = 0.94574E-03    rms(broyden)= 0.94556E-03
  rms(prec ) = 0.11653E-02
  weight for this iteration     100.00

 eigenvalues of (default mixing * dielectric matrix)
  average eigenvalue GAMMA=   1.3055
  4.4779  2.8055  2.3310  1.8218  1.1001  1.1001  0.0382  0.1497  0.3327  0.8697
  0.7549  0.5947  0.5947

 Free energy of the ion-electron system (eV)
  ---------------------------------------------------
  alpha Z        PSCENC =       841.29232037
  Ewald energy   TEWEN  =    198660.53375098
  -Hartree energ DENC   =   -231424.77189895
  -exchange      EXHF   =         0.00000000
  -V(xc)+E(xc)   XCENC  =       757.33173094
  PAW double counting   =     30110.90101686   -29789.83639923
  entropy T*S    EENTRO =         0.00125580
  eigenvalues    EBANDS =     -2458.30245908
  atomic energy  EATOM  =     33232.23268158
  Solvation  Ediel_sol  =         0.00000000
  ---------------------------------------------------
  free energy    TOTEN  =       -70.61800070 eV

  energy without entropy =      -70.61925651  energy(sigma->0) =      -70.61841930


--------------------------------------------------------------------------------------------------------




--------------------------------------- Iteration      1(  19)  ---------------------------------------


    POTLOK:  cpu time    0.0294: real time    0.0294
    SETDIJ:  cpu time    0.0033: real time    0.0033
     EDDAV:  cpu time   69.8012: real time   69.8864
       DOS:  cpu time    0.0096: real time    0.0096
    CHARGE:  cpu time    1.0335: real time    1.0339
    MIXING:  cpu time    0.0009: real time    0.0009
    --------------------------------------------
      LOOP:  cpu time   70.8778: real time   70.9634

 eigenvalue-minimisations  : 36840
 total energy-change (2. order) :-0.1335052E-03  (-0.1966984E-05)
 number of electron     279.9999487 magnetization 
 augmentation part      111.3322072 magnetization 

 Broyden mixing:
  rms(total) = 0.57137E-03    rms(broyden)= 0.57108E-03
  rms(prec ) = 0.86333E-03
  weight for this iteration     100.00

 eigenvalues of (default mixing * dielectric matrix)
  average eigenvalue GAMMA=   1.3381
  4.9456  3.0836  2.5053  1.4819  1.1865  1.1036  1.1036  0.0382  0.1497  0.3327
  0.7950  0.7950  0.5820  0.6309

 Free energy of the ion-electron system (eV)
  ---------------------------------------------------
  alpha Z        PSCENC =       841.29232037
  Ewald energy   TEWEN  =    198660.53375098
  -Hartree energ DENC   =   -231427.21658561
  -exchange      EXHF   =         0.00000000
  -V(xc)+E(xc)   XCENC  =       757.33760474
  PAW double counting   =     30110.25578529   -29789.18245265
  entropy T*S    EENTRO =         0.00124289
  eigenvalues    EBANDS =     -2455.87248181
  atomic energy  EATOM  =     33232.23268158
  Solvation  Ediel_sol  =         0.00000000
  ---------------------------------------------------
  free energy    TOTEN  =       -70.61813421 eV

  energy without entropy =      -70.61937710  energy(sigma->0) =      -70.61854851


--------------------------------------------------------------------------------------------------------




--------------------------------------- Iteration      1(  20)  ---------------------------------------


    POTLOK:  cpu time    0.0292: real time    0.0293
    SETDIJ:  cpu time    0.0033: real time    0.0033
     EDDAV:  cpu time   70.1489: real time   70.2072
       DOS:  cpu time    0.0104: real time    0.0104
    CHARGE:  cpu time    1.0234: real time    1.0237
    MIXING:  cpu time    0.0010: real time    0.0010
    --------------------------------------------
      LOOP:  cpu time   71.2161: real time   71.2748

 eigenvalue-minimisations  : 36960
 total energy-change (2. order) :-0.7140359E-04  (-0.1501760E-05)
 number of electron     279.9999487 magnetization 
 augmentation part      111.3321788 magnetization 

 Broyden mixing:
  rms(total) = 0.39064E-03    rms(broyden)= 0.39022E-03
  rms(prec ) = 0.45628E-03
  weight for this iteration     100.00

 eigenvalues of (default mixing * dielectric matrix)
  average eigenvalue GAMMA=   1.4223
  5.9304  3.1451  2.3983  1.7201  1.7201  0.0382  0.1497  0.3327  1.0527  1.0527
  0.9268  0.9268  0.7398  0.5814  0.6200

 Free energy of the ion-electron system (eV)
  ---------------------------------------------------
  alpha Z        PSCENC =       841.29232037
  Ewald energy   TEWEN  =    198660.53375098
  -Hartree energ DENC   =   -231427.62917075
  -exchange      EXHF   =         0.00000000
  -V(xc)+E(xc)   XCENC  =       757.33589606
  PAW double counting   =     30110.48355953   -29789.41132134
  entropy T*S    EENTRO =         0.00124909
  eigenvalues    EBANDS =     -2455.45717115
  atomic energy  EATOM  =     33232.23268158
  Solvation  Ediel_sol  =         0.00000000
  ---------------------------------------------------
  free energy    TOTEN  =       -70.61820561 eV

  energy without entropy =      -70.61945470  energy(sigma->0) =      -70.61862198


--------------------------------------------------------------------------------------------------------




--------------------------------------- Iteration      1(  21)  ---------------------------------------


    POTLOK:  cpu time    0.0292: real time    0.0293
    SETDIJ:  cpu time    0.0033: real time    0.0033
     EDDAV:  cpu time   62.9229: real time   62.9765
       DOS:  cpu time    0.0103: real time    0.0103
    CHARGE:  cpu time    1.0298: real time    1.0301
    MIXING:  cpu time    0.0010: real time    0.0010
    --------------------------------------------
      LOOP:  cpu time   63.9965: real time   64.0504

 eigenvalue-minimisations  : 32360
 total energy-change (2. order) :-0.7422597E-04  (-0.3594910E-06)
 number of electron     279.9999487 magnetization 
 augmentation part      111.3322928 magnetization 

 Broyden mixing:
  rms(total) = 0.18443E-03    rms(broyden)= 0.18358E-03
  rms(prec ) = 0.21042E-03
  weight for this iteration     100.00

 eigenvalues of (default mixing * dielectric matrix)
  average eigenvalue GAMMA=   1.4542
  6.5059  3.1739  2.5315  2.0410  1.4349  1.4349  0.0382  0.1497  0.3327  0.9543
  0.9543  0.8364  0.8364  0.8452  0.5838  0.6140

 Free energy of the ion-electron system (eV)
  ---------------------------------------------------
  alpha Z        PSCENC =       841.29232037
  Ewald energy   TEWEN  =    198660.53375098
  -Hartree energ DENC   =   -231428.03640518
  -exchange      EXHF   =         0.00000000
  -V(xc)+E(xc)   XCENC  =       757.33554105
  PAW double counting   =     30110.40430963   -29789.32894964
  entropy T*S    EENTRO =         0.00124756
  eigenvalues    EBANDS =     -2455.05277620
  atomic energy  EATOM  =     33232.23268158
  Solvation  Ediel_sol  =         0.00000000
  ---------------------------------------------------
  free energy    TOTEN  =       -70.61827984 eV

  energy without entropy =      -70.61952740  energy(sigma->0) =      -70.61869569


--------------------------------------------------------------------------------------------------------




--------------------------------------- Iteration      1(  22)  ---------------------------------------


    POTLOK:  cpu time    0.0293: real time    0.0293
    SETDIJ:  cpu time    0.0032: real time    0.0032
     EDDAV:  cpu time   54.3840: real time   54.4250
       DOS:  cpu time    0.0101: real time    0.0101
    CHARGE:  cpu time    1.0252: real time    1.0255
    MIXING:  cpu time    0.0010: real time    0.0010
    --------------------------------------------
      LOOP:  cpu time   55.4529: real time   55.4942

 eigenvalue-minimisations  : 26500
 total energy-change (2. order) :-0.3884637E-04  (-0.1090154E-06)
 number of electron     279.9999487 magnetization 
 augmentation part      111.3322616 magnetization 

 Broyden mixing:
  rms(total) = 0.12194E-03    rms(broyden)= 0.12067E-03
  rms(prec ) = 0.14623E-03
  weight for this iteration     100.00

 eigenvalues of (default mixing * dielectric matrix)
  average eigenvalue GAMMA=   1.5088
  6.6538  3.2737  2.9742  2.3306  1.5861  1.5861  0.0382  0.1497  1.0843  1.0843
  0.3327  0.9128  0.9128  0.7658  0.7658  0.5827  0.6158

 Free energy of the ion-electron system (eV)
  ---------------------------------------------------
  alpha Z        PSCENC =       841.29232037
[...]
     49     -12.1212      2.00000
     50     -12.1192      2.00000
     51     -12.1190      2.00000
     52     -12.1130      2.00000
     53     -12.1127      2.00000
     54     -12.1091      2.00000
     55     -12.1048      2.00000
     56     -12.0996      2.00000
     57     -12.0987      2.00000
     58     -12.0951      2.00000
     59     -12.0949      2.00000
     60     -12.0925      2.00000
     61     -12.0920      2.00000
     62     -12.0913      2.00000
     63     -12.0894      2.00000
     64     -12.0876      2.00000
     65     -12.0869      2.00000
     66     -12.0861      2.00000
     67     -12.0854      2.00000
     68     -12.0825      2.00000
     69     -12.0802      2.00000
     70     -12.0776      2.00000
     71     -12.0768      2.00000
     72     -12.0763      2.00000
     73     -12.0759      2.00000
     74     -12.0755      2.00000
     75     -12.0705      2.00000
     76     -12.0703      2.00000
     77     -12.0672      2.00000
     78     -12.0671      2.00000
     79     -12.0397      2.00000
     80     -12.0396      2.00000
     81     -12.0221      2.00000
     82     -12.0131      2.00000
     83     -12.0057      2.00000
     84     -12.0048      2.00000
     85     -12.0012      2.00000
     86     -11.9985      2.00000
     87     -11.9972      2.00000
     88     -11.9920      2.00000
     89     -11.9894      2.00000
     90     -11.9881      2.00000
     91     -11.9845      2.00000
     92     -11.9834      2.00000
     93     -11.9784      2.00000
     94     -11.9781      2.00000
     95     -11.9778      2.00000
     96     -11.9740      2.00000
     97     -11.9722      2.00000
     98     -11.9696      2.00000
     99     -11.9527      2.00000
    100     -11.9526      2.00000
    101      -2.5316      2.00000
    102      -2.5196      2.00000
    103      -2.5029      2.00000
    104      -2.4833      2.00000
    105      -2.4609      2.00000
    106      -2.4341      2.00000
    107      -2.4049      2.00000
    108      -2.3763      2.00000
    109      -2.3497      2.00000
    110      -2.3270      2.00000
    111      -2.3082      2.00000
    112      -2.2842      2.00000
    113      -2.2640      2.00000
    114      -2.2442      2.00000
    115      -2.2259      2.00000
    116      -2.2113      2.00000
    117      -2.1996      2.00000
    118      -2.1923      2.00000
    119      -2.1476      2.00000
    120      -2.1475      2.00000
    121       2.0831      2.00000
    122       2.0849      2.00000
    123       2.1415      2.00000
    124       2.1523      2.00000
    125       2.2331      2.00000
    126       2.2535      2.00000
    127       2.3524      2.00000
    128       2.3841      2.00000
    129       2.4277      2.00000
    130       2.4903      2.00000
    131       2.5195      2.00000
    132       2.5339      2.00000
    133       2.6047      2.00000
    134       2.6896      2.00000
    135       2.7106      2.00000
    136       2.7652      2.00000
    137       2.8633      2.00000
    138       2.9249      2.00000
    139       2.9308      2.00000
    140       3.1398      2.00000
    141       3.1912      2.00000
    142       3.3606      2.00000
    143       3.4138      2.00000
    144       3.5996      2.00000
    145       3.6507      2.00000
    146       3.6592      2.00000
    147       3.8674      2.00000
    148       3.9256      2.00000
    149       3.9346      2.00000
    150       4.1553      2.00000
    151       4.1829      2.00000
    152       4.2324      2.00000
    153       4.3870      2.00000
    154       4.4407      2.00000
    155       4.5197      2.00001
    156       4.6817      2.02618
    157       4.7867      1.97249
    158       4.8823      0.71592
    159       4.9740     -0.06395
    160       5.0069     -0.06233
    161       6.5372     -0.00000
    162       6.7323     -0.00000
    163       6.9928     -0.00000
    164       7.1133     -0.00000
    165       7.1442     -0.00000
    166       7.2654     -0.00000
    167       7.3084     -0.00000
    168       7.4116     -0.00000
    169       7.5602     -0.00000
    170       7.5927     -0.00000
    171       7.7505      0.00000
    172       7.8628      0.00000
    173       7.9041      0.00000
    174       8.0795      0.00000
    175       8.1396      0.00000
    176       8.1964      0.00000
    177       8.3193      0.00000
    178       8.3353      0.00000
    179       8.4709      0.00000
    180       8.6862      0.00000
    181      11.2765      0.00000
    182      11.2775      0.00000
    183      11.7826      0.00000
    184      11.7836      0.00000
    185      11.9272      0.00000
    186      12.0233      0.00000
    187      12.1047      0.00000
    188      12.1369      0.00000
    189      12.3658      0.00000
    190      12.4776      0.00000
    191      12.4815      0.00000
    192      12.7662      0.00000
    193      12.8750      0.00000
    194      12.9196      0.00000
    195      13.1860      0.00000
    196      13.2733      0.00000
    197      13.3935      0.00000
    198      13.5590      0.00000
    199      13.6226      0.00000
    200      13.6740      0.00000
    201      13.8283      0.00000
    202      14.0033      0.00000
    203      14.0141      0.00000
    204      14.0523      0.00000
    205      14.1519      0.00000
    206      14.2746      0.00000
    207      14.2850      0.00000
    208      14.5586      0.00000
    209      14.6186      0.00000
    210      14.7409      0.00000
    211      15.0301      0.00000
    212      15.3061      0.00000
    213      15.3890      0.00000
    214      15.6782      0.00000
    215      16.0836      0.00000
    216      16.1639      0.00000
    217      16.3362      0.00000
    218      16.4116      0.00000
    219      16.4227      0.00000
    220      16.7919      0.00000
    221      16.9015      0.00000
    222      16.9083      0.00000
    223      17.0084      0.00000
    224      17.2366      0.00000
    225      17.2629      0.00000
    226      17.7460      0.00000
    227      17.7777      0.00000
    228      17.8004      0.00000
    229      17.8439      0.00000
    230      18.2321      0.00000
    231      18.2349      0.00000
    232      18.2881      0.00000
    233      18.2882      0.00000
    234      18.3146      0.00000
    235      18.3154      0.00000
    236      18.3595      0.00000
    237      18.3653      0.00000
    238      18.4417      0.00000
    239      18.4607      0.00000
    240      18.5295      0.00000
    241      18.5383      0.00000
    242      18.6239      0.00000
    243      18.6414      0.00000
    244      18.7519      0.00000
    245      18.7759      0.00000
    246      18.7762      0.00000
    247      18.7969      0.00000
    248      18.8644      0.00000
    249      18.8777      0.00000
    250      18.9296      0.00000


--------------------------------------------------------------------------------------------------------


 soft charge-density along one line, spin component           1
         0         1         2         3         4         5         6         7         8         9
 total charge-density along one line

 pseudopotential strength for first ion, spin component:           1
-14.082  -0.002   0.003  -0.002   0.000   3.635   0.002  -0.002
 -0.002 -14.082  -0.002  -0.002   0.003   0.002   3.635   0.001
  0.003  -0.002 -14.082  -0.002  -0.000  -0.002   0.001   3.636
 -0.002  -0.002  -0.002 -14.082  -0.003   0.002   0.002   0.001
  0.000   0.003  -0.000  -0.003 -14.082  -0.000  -0.002   0.000
  3.635   0.002  -0.002   0.002  -0.000   6.031  -0.001   0.001
  0.002   3.635   0.001   0.002  -0.002  -0.001   6.031  -0.001
 -0.002   0.001   3.636   0.001   0.000   0.001  -0.001   6.031
  0.002   0.002   0.001   3.635   0.002  -0.001  -0.001  -0.001
 -0.000  -0.002   0.000   0.002   3.636   0.000   0.001  -0.000
  0.000   0.000   0.000   0.000  -0.000   0.001   0.001   0.000
 -0.000  -0.000  -0.000  -0.000   0.000  -0.002  -0.002  -0.000
  0.004   0.004  -0.003  -0.000  -0.004   0.000   0.000  -0.000
 -0.000   0.004   0.005   0.004  -0.000  -0.000   0.000   0.000
  0.004  -0.000  -0.003   0.004   0.004   0.000  -0.000  -0.000
  0.008   0.008  -0.005  -0.000  -0.008   0.001   0.001  -0.001
 -0.000   0.008   0.010   0.008  -0.000  -0.000   0.001   0.001
  0.008  -0.000  -0.005   0.008   0.008   0.001  -0.000  -0.001
 total augmentation occupancy for first ion, spin component:           1
  1.999   0.000  -0.000   0.000   0.000   0.002  -0.000  -0.000  -0.000   0.000   0.001  -0.000  -0.010  -0.001  -0.010   0.004
  0.000   1.999   0.000   0.000  -0.000  -0.000   0.002   0.000  -0.000  -0.000   0.001  -0.000  -0.010  -0.010  -0.001   0.004
 -0.000   0.000   1.999   0.000   0.000  -0.000   0.000   0.002   0.000   0.000   0.000   0.000   0.005  -0.011   0.005  -0.003
  0.000   0.000   0.000   1.999   0.000  -0.000  -0.000   0.000   0.002   0.000   0.001  -0.000  -0.001  -0.010  -0.010  -0.000
  0.000  -0.000   0.000   0.000   1.999   0.000  -0.000   0.000   0.000   0.002   0.000   0.000   0.009  -0.000  -0.009  -0.005
  0.002  -0.000  -0.000  -0.000   0.000   0.008  -0.000   0.001  -0.000   0.000   0.001  -0.001   0.020   0.004   0.020  -0.001
 -0.000   0.002   0.000  -0.000  -0.000  -0.000   0.008  -0.000  -0.000   0.001   0.001  -0.001   0.020   0.020   0.004  -0.001
 -0.000   0.000   0.002   0.000   0.000   0.001  -0.000   0.005  -0.000   0.000   0.000  -0.000  -0.007   0.014  -0.007   0.001
 -0.000  -0.000   0.000   0.002   0.000  -0.000  -0.000  -0.000   0.008  -0.001   0.001  -0.001   0.004   0.020   0.020  -0.000
  0.000  -0.000   0.000   0.000   0.002   0.000   0.001   0.000  -0.001   0.005   0.000  -0.000  -0.012   0.000   0.012   0.001
  0.001   0.001  -0.000   0.001   0.000   0.001   0.001   0.000   0.001   0.000   1.977  -0.001  -0.039  -0.039  -0.039   0.002
 -0.000  -0.000   0.000  -0.000   0.000  -0.001  -0.001  -0.000  -0.001  -0.000  -0.001   0.005   0.014   0.014   0.014  -0.001
 -0.010  -0.010   0.005  -0.001   0.009   0.020   0.020  -0.007   0.004  -0.012  -0.039   0.014   0.917  -0.017  -0.017  -0.052
 -0.001  -0.010  -0.011  -0.010  -0.000   0.004   0.020   0.014   0.020   0.000  -0.039   0.014  -0.017   0.917  -0.017   0.003
 -0.010  -0.001   0.005  -0.010  -0.009   0.020   0.004  -0.007   0.020   0.012  -0.039   0.014  -0.017  -0.017   0.917   0.003
  0.004   0.004  -0.003  -0.000  -0.005  -0.001  -0.001   0.001  -0.000   0.001   0.002  -0.001  -0.052   0.003   0.003   0.004
 -0.000   0.004   0.006   0.004   0.000  -0.000  -0.001  -0.001  -0.001  -0.000   0.002  -0.001   0.003  -0.052   0.003  -0.000
  0.004  -0.000  -0.003   0.004   0.005  -0.001  -0.000   0.001  -0.001  -0.001   0.002  -0.001   0.003   0.003  -0.052  -0.000


------------------------ aborting loop because EDIFF is reached ----------------------------------------


    CHARGE:  cpu time    1.0402: real time    1.0406
    FORLOC:  cpu time    0.0021: real time    0.0021
    FORNL :  cpu time   26.6149: real time   26.6207
    STRESS:  cpu time   49.8138: real time   49.8247
    FORCOR:  cpu time    0.0302: real time    0.0302
    FORHAR:  cpu time    0.0092: real time    0.0092
    MIXING:  cpu time    0.0012: real time    0.0012
    OFIELD:  cpu time    0.0001: real time    0.0001

  FORCE on cell =-STRESS in cart. coord.  units (eV):
  Direction    XX          YY          ZZ          XY          YZ          ZX
  --------------------------------------------------------------------------------------
  Alpha Z   841.29232   841.29232   841.29232
  Ewald   66220.14858 66220.14858 66220.14858************************************
  Hartree 77142.78654 77142.78654 77142.78654************************************
  E(xc)   -1333.25389 -1333.25387 -1333.25389    -0.13433    -0.13433    -0.13431
  Local  ************************************299194.82279299194.82285299194.82205
  n-local  1462.74179  1329.97068  1377.25077   -17.05039    72.02459   -55.38858
  augment  2469.76391  2469.76501  2469.76389    -0.11164    -0.11166    -0.11055
  Kinetic  2963.83743  2786.58770  2810.25374   -42.44818   104.05618   -59.96441
  Fock        0.00000     0.00000     0.00000     0.00000     0.00000     0.00000
  -------------------------------------------------------------------------------------
  Total      10.15453    10.15453    10.15453     0.07228     0.07228     0.07228
  in kB      20.85606    20.85606    20.85606     0.14845     0.14845     0.14845
  external pressure =       20.86 kB  Pullay stress =        0.00 kB


 VOLUME and BASIS-vectors are now :
 -----------------------------------------------------------------------------
  energy-cutoff  :      400.00
  volume of cell :      780.08
      direct lattice vectors                 reciprocal lattice vectors
     2.465499973 -2.465499973  0.000000000     0.270398164 -0.135199082 -0.135199082
     0.000000000  2.465499973 -2.465499973     0.135199082  0.135199082 -0.270398164
    42.776672050 42.776672050 42.776672050     0.007792409  0.007792409  0.007792409

  length of vectors
     3.486743500  3.486743500 74.091369370     0.331168765  0.331168765  0.013496849


 FORCES acting on ions
    electron-ion (+dipol)            ewald-force                    non-local-force                 convergence-correction
 -----------------------------------------------------------------------------------------------
   0.430E+04 0.430E+04 0.430E+04   -.431E+04 -.431E+04 -.431E+04   0.250E+01 0.250E+01 0.250E+01   0.862E-03 0.862E-03 0.862E-03
   0.380E+04 0.380E+04 0.380E+04   -.380E+04 -.380E+04 -.380E+04   -.116E+01 -.116E+01 -.116E+01   0.193E-02 0.193E-02 0.193E-02
   0.337E+04 0.337E+04 0.337E+04   -.337E+04 -.337E+04 -.337E+04   0.472E+00 0.472E+00 0.472E+00   0.234E-02 0.234E-02 0.234E-02
   0.292E+04 0.292E+04 0.292E+04   -.292E+04 -.292E+04 -.292E+04   -.192E+00 -.192E+00 -.192E+00   0.225E-02 0.225E-02 0.225E-02
   0.248E+04 0.248E+04 0.248E+04   -.248E+04 -.248E+04 -.248E+04   0.803E-01 0.803E-01 0.803E-01   0.211E-02 0.211E-02 0.211E-02
   0.203E+04 0.203E+04 0.203E+04   -.203E+04 -.203E+04 -.203E+04   0.173E-01 0.173E-01 0.173E-01   0.184E-02 0.184E-02 0.184E-02
   0.158E+04 0.158E+04 0.158E+04   -.158E+04 -.158E+04 -.158E+04   -.673E-01 -.673E-01 -.673E-01   0.163E-02 0.163E-02 0.163E-02
   0.113E+04 0.113E+04 0.113E+04   -.113E+04 -.113E+04 -.113E+04   0.108E+00 0.108E+00 0.108E+00   0.123E-02 0.123E-02 0.123E-02
   0.673E+03 0.673E+03 0.673E+03   -.673E+03 -.673E+03 -.673E+03   -.142E+00 -.142E+00 -.142E+00   0.675E-03 0.675E-03 0.675E-03
   0.227E+03 0.227E+03 0.227E+03   -.228E+03 -.228E+03 -.228E+03   0.154E+00 0.154E+00 0.154E+00   0.184E-03 0.184E-03 0.184E-03
   -.227E+03 -.227E+03 -.227E+03   0.228E+03 0.228E+03 0.228E+03   -.154E+00 -.154E+00 -.154E+00   -.187E-03 -.187E-03 -.187E-03
   -.673E+03 -.673E+03 -.673E+03   0.673E+03 0.673E+03 0.673E+03   0.142E+00 0.142E+00 0.142E+00   -.678E-03 -.678E-03 -.678E-03
   -.113E+04 -.113E+04 -.113E+04   0.113E+04 0.113E+04 0.113E+04   -.108E+00 -.108E+00 -.108E+00   -.123E-02 -.123E-02 -.123E-02
   -.158E+04 -.158E+04 -.158E+04   0.158E+04 0.158E+04 0.158E+04   0.673E-01 0.673E-01 0.673E-01   -.163E-02 -.163E-02 -.163E-02
   -.203E+04 -.203E+04 -.203E+04   0.203E+04 0.203E+04 0.203E+04   -.173E-01 -.173E-01 -.173E-01   -.184E-02 -.184E-02 -.184E-02
   -.248E+04 -.248E+04 -.248E+04   0.248E+04 0.248E+04 0.248E+04   -.803E-01 -.803E-01 -.803E-01   -.211E-02 -.211E-02 -.211E-02
   -.292E+04 -.292E+04 -.292E+04   0.292E+04 0.292E+04 0.292E+04   0.192E+00 0.192E+00 0.192E+00   -.225E-02 -.225E-02 -.225E-02
   -.337E+04 -.337E+04 -.337E+04   0.337E+04 0.337E+04 0.337E+04   -.472E+00 -.472E+00 -.472E+00   -.234E-02 -.234E-02 -.234E-02
   -.380E+04 -.380E+04 -.380E+04   0.380E+04 0.380E+04 0.380E+04   0.116E+01 0.116E+01 0.116E+01   -.193E-02 -.193E-02 -.193E-02
   -.430E+04 -.430E+04 -.430E+04   0.431E+04 0.431E+04 0.431E+04   -.250E+01 -.250E+01 -.250E+01   -.861E-03 -.861E-03 -.861E-03
 -----------------------------------------------------------------------------------------------
   -.998E-02 -.976E-02 0.196E-01   -.819E-11 0.546E-11 0.637E-11   0.444E-15 0.444E-15 -.444E-15   -.198E-05 -.198E-05 -.206E-05


 POSITION                                       TOTAL-FORCE (eV/Angst)
 -----------------------------------------------------------------------------------
      1.68649     -0.77901     -0.77901        -0.124283     -0.124283     -0.124283
      1.61073      1.61073      1.61072         0.018037      0.018037      0.018037
      4.09943      4.09943      1.63393        -0.003454     -0.003454     -0.003454
      6.56973      4.10423      4.10423        -0.001398     -0.001398     -0.001398
      6.57480      6.57480      6.57480        -0.002009     -0.002009     -0.002009
      9.04171      9.04171      6.57621        -0.001938     -0.001938     -0.001938
     11.50549      9.03999      9.03999         0.001323      0.001323      0.001323
     11.50798     11.50798     11.50798        -0.000994     -0.000994     -0.000994
     13.96818     13.96818     11.50268        -0.000398     -0.000398     -0.000398
     16.43972     13.97422     13.97422         0.000304      0.000304      0.000304
     16.43361     16.43361     16.43361        -0.000304     -0.000304     -0.000304
     18.90515     18.90515     16.43965         0.000398      0.000398      0.000398
     21.36535     18.89985     18.89985         0.000994      0.000994      0.000994
     21.36784     21.36784     21.36784        -0.001323     -0.001323     -0.001323
     23.83162     23.83162     21.36612         0.001938      0.001938      0.001938
     26.29853     23.83303     23.83303         0.002009      0.002009      0.002009
     26.30360     26.30360     26.30360         0.001398      0.001398      0.001398
     28.77390     28.77390     26.30840         0.003454      0.003454      0.003454
     31.26261     28.79711     28.79711        -0.018037     -0.018037     -0.018037
     31.18684     31.18684     31.18684         0.124283      0.124283      0.124283
 -----------------------------------------------------------------------------------
    total drift:                               -0.009977     -0.009757      0.019642


--------------------------------------------------------------------------------------------------------



  FREE ENERGIE OF THE ION-ELECTRON SYSTEM (eV)
  ---------------------------------------------------
  free  energy   TOTEN  =       -70.61837758 eV

  energy  without entropy=      -70.61962407  energy(sigma->0) =      -70.61879308



--------------------------------------------------------------------------------------------------------


    POTLOK:  cpu time    0.0342: real time    0.0342


--------------------------------------------------------------------------------------------------------


 writing wavefunctions
     LOOP+:  cpu time 2066.7854: real time 2069.9583
    4ORBIT:  cpu time    0.0000: real time    0.0000

 total amount of memory used by VASP MPI-rank0   187084. kBytes
=======================================================================

   base      :      30000. kBytes
   nonl-proj :      23135. kBytes
   fftplans  :       2273. kBytes
   grid      :       3434. kBytes
   one-center:         62. kBytes
   wavefun   :     128180. kBytes

  
  
 General timing and accounting informations for this job:
 ========================================================
  
                  Total CPU time used (sec):     2096.584
                            User time (sec):     2042.844
                          System time (sec):       53.740
                         Elapsed time (sec):     2099.919
  
                   Maximum memory used (kb):      220556.
                   Average memory used (kb):           0.
  
                          Minor page faults:       135649
                          Major page faults:            6
                 Voluntary context switches:         1584
