<?xml version="1.0" encoding="ISO-8859-1"?>
<modeling>
 <generator>
  <i name="program" type="string">vasp </i>
  <i name="version" type="string">5.4.4.18Apr17-6-g9f103f2a35  </i>
  <i name="subversion" type="string">(build Sep 13 2019 13:34:59) complex            parallel </i>
  <i name="platform" type="string">LinuxGNU </i>
  <i name="date" type="string">2020 11 20 </i>
  <i name="time" type="string">19:46:15 </i>
 </generator>
 <incar>
  <i type="string" name="SYSTEM"> Pb_2Dslab_20L</i>
  <i type="int" name="ISTART">     0</i>
  <i type="string" name="PREC">normal</i>
  <i name="EDIFF">      0.00000100</i>
  <i name="ENCUT">    400.00000000</i>
  <i type="int" name="NBANDS">   250</i>
  <i name="SIGMA">      0.10000000</i>
  <v type="int" name="KPOINT_BSE">    -1     0     0     0</v>
  <i type="string" name="GGA">PE</i>
 </incar>
 <structure name="primitive_cell" >
  <crystal>
   <varray name="basis" >
    <v>       2.46549997      -2.46549997       0.00000000 </v>
    <v>       0.00000000       2.46549997      -2.46549997 </v>
    <v>      42.77667205      42.77667205      42.77667205 </v>
   </varray>
   <i name="volume">    780.07840094 </i>
   <varray name="rec_basis" >
    <v>       0.27039816      -0.13519908      -0.13519908 </v>
    <v>       0.13519908       0.13519908      -0.27039816 </v>
    <v>       0.00779241       0.00779241       0.00779241 </v>
   </varray>
  </crystal>
  <varray name="positions" >
   <v>      -0.33333305       0.33333389       0.00100113 </v>
   <v>       0.00000027       0.00000054       0.03765430 </v>
   <v>       0.33333362      -0.33333278       0.07662113 </v>
   <v>      -0.33333305       0.33333389       0.11515777 </v>
   <v>       0.00000027       0.00000054       0.15370069 </v>
   <v>       0.33333362      -0.33333278       0.19215792 </v>
   <v>      -0.33333305       0.33333389       0.23054211 </v>
   <v>       0.00000027       0.00000054       0.26902470 </v>
   <v>       0.00000027       0.00000054      -0.27093811 </v>
   <v>       0.33333362      -0.33333278       0.30732515 </v>
   <v>      -0.33333305       0.33333389      -0.30759128 </v>
   <v>      -0.33333305       0.33333389       0.34589073 </v>
   <v>       0.33333362      -0.33333278      -0.34655810 </v>
   <v>       0.00000027       0.00000054       0.38417229 </v>
   <v>       0.00000027       0.00000054      -0.38509474 </v>
   <v>       0.33333362      -0.33333278       0.42273787 </v>
   <v>      -0.33333305       0.33333389      -0.42363766 </v>
   <v>      -0.33333305       0.33333389       0.46103832 </v>
   <v>       0.33333362      -0.33333278      -0.46209490 </v>
   <v>       0.00000027       0.00000054       0.49952092 </v>
  </varray>
 </structure>
 <varray name="primitive_index" >
  <v type="int" >        1 </v>
  <v type="int" >        2 </v>
  <v type="int" >        3 </v>
  <v type="int" >        4 </v>
  <v type="int" >        5 </v>
  <v type="int" >        6 </v>
  <v type="int" >        7 </v>
  <v type="int" >        8 </v>
  <v type="int" >       20 </v>
  <v type="int" >        9 </v>
  <v type="int" >       19 </v>
  <v type="int" >       10 </v>
  <v type="int" >       18 </v>
  <v type="int" >       11 </v>
  <v type="int" >       17 </v>
  <v type="int" >       12 </v>
  <v type="int" >       16 </v>
  <v type="int" >       13 </v>
  <v type="int" >       15 </v>
  <v type="int" >       14 </v>
 </varray>
 <kpoints>
  <generation param="Gamma">
   <v type="int" name="divisions">      25       25        1 </v>
   <v name="usershift">      0.00000000       0.00000000       0.00000000 </v>
   <v name="genvec1">      0.04000000       0.00000000       0.00000000 </v>
   <v name="genvec2">     -0.00000000       0.04000000      -0.00000000 </v>
   <v name="genvec3">     -0.00000000       0.00000000       1.00000000 </v>
   <v name="shift">      0.00000000       0.00000000       0.00000000 </v>
  </generation>
  <varray name="kpointlist" >
   <v>       0.00000000       0.00000000       0.00000000 </v>
   <v>       0.04000000       0.00000000       0.00000000 </v>
   <v>       0.08000000       0.00000000       0.00000000 </v>
   <v>       0.12000000       0.00000000       0.00000000 </v>
   <v>       0.16000000       0.00000000       0.00000000 </v>
   <v>       0.20000000       0.00000000       0.00000000 </v>
   <v>       0.24000000       0.00000000       0.00000000 </v>
   <v>       0.28000000       0.00000000       0.00000000 </v>
   <v>       0.32000000       0.00000000       0.00000000 </v>
   <v>       0.36000000       0.00000000       0.00000000 </v>
   <v>       0.40000000       0.00000000       0.00000000 </v>
   <v>       0.44000000       0.00000000       0.00000000 </v>
   <v>       0.48000000       0.00000000       0.00000000 </v>
   <v>       0.04000000       0.04000000       0.00000000 </v>
   <v>       0.08000000       0.04000000       0.00000000 </v>
   <v>       0.12000000       0.04000000       0.00000000 </v>
   <v>       0.16000000       0.04000000       0.00000000 </v>
   <v>       0.20000000       0.04000000       0.00000000 </v>
   <v>       0.24000000       0.04000000       0.00000000 </v>
   <v>       0.28000000       0.04000000       0.00000000 </v>
   <v>       0.32000000       0.04000000       0.00000000 </v>
   <v>       0.36000000       0.04000000       0.00000000 </v>
   <v>       0.40000000       0.04000000       0.00000000 </v>
   <v>       0.44000000       0.04000000       0.00000000 </v>
   <v>       0.48000000       0.04000000       0.00000000 </v>
   <v>       0.08000000       0.08000000       0.00000000 </v>
   <v>       0.12000000       0.08000000       0.00000000 </v>
   <v>       0.16000000       0.08000000       0.00000000 </v>
   <v>       0.20000000       0.08000000       0.00000000 </v>
   <v>       0.24000000       0.08000000       0.00000000 </v>
   <v>       0.28000000       0.08000000       0.00000000 </v>
   <v>       0.32000000       0.08000000       0.00000000 </v>
   <v>       0.36000000       0.08000000       0.00000000 </v>
   <v>       0.40000000       0.08000000       0.00000000 </v>
   <v>       0.44000000       0.08000000       0.00000000 </v>
   <v>       0.12000000       0.12000000       0.00000000 </v>
   <v>       0.16000000       0.12000000       0.00000000 </v>
   <v>       0.20000000       0.12000000       0.00000000 </v>
   <v>       0.24000000       0.12000000       0.00000000 </v>
   <v>       0.28000000       0.12000000       0.00000000 </v>
   <v>       0.32000000       0.12000000       0.00000000 </v>
   <v>       0.36000000       0.12000000       0.00000000 </v>
   <v>       0.40000000       0.12000000       0.00000000 </v>
   <v>       0.44000000       0.12000000       0.00000000 </v>
   <v>       0.16000000       0.16000000       0.00000000 </v>
   <v>       0.20000000       0.16000000       0.00000000 </v>
   <v>       0.24000000       0.16000000       0.00000000 </v>
   <v>       0.28000000       0.16000000       0.00000000 </v>
   <v>       0.32000000       0.16000000       0.00000000 </v>
   <v>       0.36000000       0.16000000       0.00000000 </v>
   <v>       0.40000000       0.16000000       0.00000000 </v>
   <v>       0.20000000       0.20000000       0.00000000 </v>
   <v>       0.24000000       0.20000000       0.00000000 </v>
   <v>       0.28000000       0.20000000       0.00000000 </v>
   <v>       0.32000000       0.20000000       0.00000000 </v>
   <v>       0.36000000       0.20000000       0.00000000 </v>
   <v>       0.40000000       0.20000000       0.00000000 </v>
   <v>       0.24000000       0.24000000       0.00000000 </v>
   <v>       0.28000000       0.24000000       0.00000000 </v>
   <v>       0.32000000       0.24000000       0.00000000 </v>
   <v>       0.36000000       0.24000000       0.00000000 </v>
   <v>       0.28000000       0.28000000       0.00000000 </v>
   <v>       0.32000000       0.28000000      -0.00000000 </v>
   <v>       0.36000000       0.28000000       0.00000000 </v>
   <v>       0.32000000       0.32000000       0.00000000 </v>
  </varray>
  <varray name="weights" >
   <v>       0.00160000 </v>
   <v>       0.00960000 </v>
   <v>       0.00960000 </v>
   <v>       0.00960000 </v>
   <v>       0.00960000 </v>
   <v>       0.00960000 </v>
   <v>       0.00960000 </v>
   <v>       0.00960000 </v>
   <v>       0.00960000 </v>
   <v>       0.00960000 </v>
   <v>       0.00960000 </v>
   <v>       0.00960000 </v>
   <v>       0.00960000 </v>
   <v>       0.00960000 </v>
   <v>       0.01920000 </v>
   <v>       0.01920000 </v>
   <v>       0.01920000 </v>
   <v>       0.01920000 </v>
   <v>       0.01920000 </v>
   <v>       0.01920000 </v>
   <v>       0.01920000 </v>
   <v>       0.01920000 </v>
   <v>       0.01920000 </v>
   <v>       0.01920000 </v>
   <v>       0.00960000 </v>
   <v>       0.00960000 </v>
   <v>       0.01920000 </v>
   <v>       0.01920000 </v>
   <v>       0.01920000 </v>
   <v>       0.01920000 </v>
   <v>       0.01920000 </v>
   <v>       0.01920000 </v>
   <v>       0.01920000 </v>
   <v>       0.01920000 </v>
   <v>       0.01920000 </v>
   <v>       0.00960000 </v>
   <v>       0.01920000 </v>
   <v>       0.01920000 </v>
   <v>       0.01920000 </v>
   <v>       0.01920000 </v>
   <v>       0.01920000 </v>
   <v>       0.01920000 </v>
   <v>       0.01920000 </v>
   <v>       0.00960000 </v>
   <v>       0.00960000 </v>
   <v>       0.01920000 </v>
   <v>       0.01920000 </v>
   <v>       0.01920000 </v>
   <v>       0.01920000 </v>
   <v>       0.01920000 </v>
   <v>       0.01920000 </v>
   <v>       0.00960000 </v>
   <v>       0.01920000 </v>
   <v>       0.01920000 </v>
   <v>       0.01920000 </v>
   <v>       0.01920000 </v>
   <v>       0.00960000 </v>
   <v>       0.00960000 </v>
   <v>       0.01920000 </v>
   <v>       0.01920000 </v>
   <v>       0.01920000 </v>
   <v>       0.00960000 </v>
   <v>       0.01920000 </v>
   <v>       0.00960000 </v>
   <v>       0.00960000 </v>
  </varray>
 </kpoints>
 <parameters>
  <separator name="general" >
   <i type="string" name="SYSTEM">Pb_2Dslab_20L</i>
   <i type="logical" name="LCOMPAT"> F  </i>
  </separator>
  <separator name="electronic" >
   <i type="string" name="PREC">normal</i>
   <i name="ENMAX">    400.00000000</i>
   <i name="ENAUG">    391.91400000</i>
   <i name="EDIFF">      0.00000100</i>
   <i type="int" name="IALGO">    38</i>
   <i type="int" name="IWAVPR">    10</i>
   <i type="int" name="NBANDS">   250</i>
   <i name="NELECT">    280.00000000</i>
   <i type="int" name="TURBO">     0</i>
   <i type="int" name="IRESTART">     0</i>
   <i type="int" name="NREBOOT">     0</i>
   <i type="int" name="NMIN">     0</i>
   <i name="EREF">      0.00000000</i>
   <separator name="electronic smearing" >
    <i type="int" name="ISMEAR">     1</i>
    <i name="SIGMA">      0.10000000</i>
    <i name="KSPACING">      0.50000000</i>
    <i type="logical" name="KGAMMA"> T  </i>
   </separator>
   <separator name="electronic projectors" >
    <i type="logical" name="LREAL"> F  </i>
    <v name="ROPT">      0.00000000</v>
    <i type="int" name="LMAXPAW">  -100</i>
    <i type="int" name="LMAXMIX">     2</i>
    <i type="logical" name="NLSPLINE"> F  </i>
   </separator>
   <separator name="electronic startup" >
    <i type="int" name="ISTART">     0</i>
    <i type="int" name="ICHARG">     2</i>
    <i type="int" name="INIWAV">     1</i>
   </separator>
   <separator name="electronic spin" >
    <i type="int" name="ISPIN">     1</i>
    <i type="logical" name="LNONCOLLINEAR"> F  </i>
    <v name="MAGMOM">      1.00000000      1.00000000      1.00000000      1.00000000      1.00000000      1.00000000      1.00000000      1.00000000      1.00000000      1.00000000      1.00000000      1.00000000      1.00000000      1.00000000      1.00000000      1.00000000      1.00000000      1.00000000      1.00000000      1.00000000
</v>
    <i name="NUPDOWN">     -1.00000000</i>
    <i type="logical" name="LSORBIT"> F  </i>
    <v name="SAXIS">      0.00000000      0.00000000      1.00000000</v>
    <i type="logical" name="LSPIRAL"> F  </i>
    <v name="QSPIRAL">      0.00000000      0.00000000      0.00000000</v>
    <i type="logical" name="LZEROZ"> F  </i>
   </separator>
   <separator name="electronic exchange-correlation" >
    <i type="logical" name="LASPH"> F  </i>
    <i type="logical" name="LMETAGGA"> F  </i>
   </separator>
   <separator name="electronic convergence" >
    <i type="int" name="NELM">    60</i>
    <i type="int" name="NELMDL">    -5</i>
    <i type="int" name="NELMIN">     2</i>
    <i name="ENINI">    400.00000000</i>
    <separator name="electronic convergence detail" >
     <i type="logical" name="LDIAG"> T  </i>
     <i type="logical" name="LSUBROT"> F  </i>
     <i name="WEIMIN">      0.00000000</i>
     <i name="EBREAK">      0.00000000</i>
     <i name="DEPER">      0.30000000</i>
     <i type="int" name="NRMM">     4</i>
     <i name="TIME">      0.40000000</i>
    </separator>
   </separator>
   <separator name="electronic mixer" >
    <i name="AMIX">      0.40000000</i>
    <i name="BMIX">      1.00000000</i>
    <i name="AMIN">      0.10000000</i>
    <i name="AMIX_MAG">      1.60000000</i>
    <i name="BMIX_MAG">      1.00000000</i>
    <separator name="electronic mixer details" >
     <i type="int" name="IMIX">     4</i>
     <i type="logical" name="MIXFIRST"> F  </i>
     <i type="int" name="MAXMIX">   -45</i>
     <i name="WC">    100.00000000</i>
     <i type="int" name="INIMIX">     1</i>
     <i type="int" name="MIXPRE">     1</i>
     <i type="int" name="MREMOVE">     5</i>
    </separator>
   </separator>
   <separator name="electronic dipolcorrection" >
    <i type="logical" name="LDIPOL"> F  </i>
    <i type="logical" name="LMONO"> F  </i>
    <i type="int" name="IDIPOL">     0</i>
    <i name="EPSILON">      1.00000000</i>
    <v name="DIPOL">   -100.00000000   -100.00000000   -100.00000000</v>
    <i name="EFIELD">      0.00000000</i>
   </separator>
  </separator>
  <separator name="grids" >
   <i type="int" name="NGX">    18</i>
   <i type="int" name="NGY">    18</i>
   <i type="int" name="NGZ">   378</i>
   <i type="int" name="NGXF">    36</i>
   <i type="int" name="NGYF">    36</i>
   <i type="int" name="NGZF">   756</i>
   <i type="logical" name="ADDGRID"> F  </i>
  </separator>
  <separator name="ionic" >
   <i type="int" name="NSW">     0</i>
   <i type="int" name="IBRION">    -1</i>
   <i type="int" name="MDALGO">     0</i>
   <i type="int" name="ISIF">     2</i>
   <i name="PSTRESS">      0.00000000</i>
   <i name="EDIFFG">      0.00001000</i>
   <i type="int" name="NFREE">     0</i>
   <i name="POTIM">      0.50000000</i>
   <i name="SMASS">     -3.00000000</i>
   <i name="SCALEE">      1.00000000</i>
  </separator>
  <separator name="ionic md" >
   <i name="TEBEG">      0.00010000</i>
   <i name="TEEND">      0.00010000</i>
   <i type="int" name="NBLOCK">     1</i>
   <i type="int" name="KBLOCK">     1</i>
   <i type="int" name="NPACO">   256</i>
   <i name="APACO">     16.00000000</i>
  </separator>
  <separator name="symmetry" >
   <i type="int" name="ISYM">     2</i>
   <i name="SYMPREC">      0.00001000</i>
  </separator>
  <separator name="dos" >
   <i type="int" name="LORBIT">     0</i>
   <v name="RWIGS">     -1.00000000</v>
   <i type="int" name="NEDOS">   301</i>
   <i name="EMIN">     10.00000000</i>
   <i name="EMAX">    -10.00000000</i>
   <i name="EFERMI">      0.00000000</i>
  </separator>
  <separator name="writing" >
   <i type="int" name="NWRITE">     2</i>
   <i type="logical" name="LWAVE"> T  </i>
   <i type="logical" name="LDOWNSAMPLE"> F  </i>
   <i type="logical" name="LCHARG"> T  </i>
   <i type="logical" name="LPARD"> F  </i>
   <i type="logical" name="LVTOT"> F  </i>
   <i type="logical" name="LVHAR"> F  </i>
   <i type="logical" name="LELF"> F  </i>
   <i type="logical" name="LOPTICS"> F  </i>
   <v name="STM">      0.00000000      0.00000000      0.00000000      0.00000000      0.00000000      0.00000000      0.00000000</v>
  </separator>
  <separator name="performance" >
   <i type="int" name="NPAR">     5</i>
   <i type="int" name="NSIM">     4</i>
   <i type="int" name="NBLK">    -1</i>
   <i type="logical" name="LPLANE"> T  </i>
   <i type="logical" name="LSCALAPACK"> T  </i>
   <i type="logical" name="LSCAAWARE"> F  </i>
   <i type="logical" name="LSCALU"> F  </i>
   <i type="logical" name="LASYNC"> F  </i>
   <i type="logical" name="LORBITALREAL"> F  </i>
  </separator>
  <separator name="miscellaneous" >
   <i type="int" name="IDIOT">     3</i>
   <i type="int" name="ISPECIAL">     0</i>
   <i type="logical" name="LMUSIC"> F  </i>
   <v name="POMASS">    207.20000000</v>
   <v name="DARWINR">      0.00000000</v>
   <v name="DARWINV">      1.00000000</v>
   <i type="logical" name="LCORR"> T  </i>
  </separator>
  <i type="logical" name="GGA_COMPAT"> T  </i>
  <i type="logical" name="LBERRY"> F  </i>
  <i type="int" name="ICORELEVEL">     0</i>
  <i type="logical" name="LDAU"> F  </i>
  <i type="int" name="I_CONSTRAINED_M">     0</i>
  <separator name="electronic exchange-correlation" >
   <i type="string" name="GGA">PE</i>
   <i type="int" name="VOSKOWN">     0</i>
   <i type="logical" name="LHFCALC"> F  </i>
   <i type="string" name="PRECFOCK"></i>
   <i type="logical" name="LSYMGRAD"> F  </i>
   <i type="logical" name="LHFONE"> F  </i>
   <i type="logical" name="LRHFCALC"> F  </i>
   <i type="logical" name="LTHOMAS"> F  </i>
   <i type="logical" name="LMODELHF"> F  </i>
   <i name="ENCUT4O">     -1.00000000</i>
   <i type="int" name="EXXOEP">     0</i>
   <i type="int" name="FOURORBIT">     0</i>
   <i name="AEXX">      0.00000000</i>
   <i name="HFALPHA">      0.00000000</i>
   <i name="MCALPHA">      0.00000000</i>
   <i name="ALDAX">      1.00000000</i>
   <i name="AGGAX">      1.00000000</i>
   <i name="ALDAC">      1.00000000</i>
   <i name="AGGAC">      1.00000000</i>
   <i type="int" name="NKREDX">     1</i>
   <i type="int" name="NKREDY">     1</i>
   <i type="int" name="NKREDZ">     1</i>
   <i type="logical" name="SHIFTRED"> F  </i>
   <i type="logical" name="ODDONLY"> F  </i>
   <i type="logical" name="EVENONLY"> F  </i>
   <i type="int" name="LMAXFOCK">     0</i>
   <i type="int" name="NMAXFOCKAE">     0</i>
   <i type="logical" name="LFOCKAEDFT"> F  </i>
   <i name="HFSCREEN">      0.00000000</i>
   <i name="HFSCREENC">      0.00000000</i>
   <i type="int" name="NBANDSGWLOW">     0</i>
  </separator>
  <separator name="vdW DFT" >
   <i type="logical" name="LUSE_VDW"> F  </i>
   <i name="Zab_VDW">     -0.84910000</i>
   <i name="PARAM1">      0.12340000</i>
   <i name="PARAM2">      1.00000000</i>
   <i name="PARAM3">      0.00000000</i>
  </separator>
  <separator name="model GW" >
   <i type="int" name="MODEL_GW">     0</i>
   <i name="MODEL_EPS0">     23.40235203</i>
   <i name="MODEL_ALPHA">      1.00000000</i>
  </separator>
  <separator name="linear response parameters" >
   <i type="logical" name="LEPSILON"> F  </i>
   <i type="logical" name="LRPA"> F  </i>
   <i type="logical" name="LNABLA"> F  </i>
   <i type="logical" name="LVEL"> F  </i>
   <i type="int" name="KINTER">     0</i>
   <i name="CSHIFT">      0.10000000</i>
   <i name="OMEGAMAX">     -1.00000000</i>
   <i name="DEG_THRESHOLD">      0.00200000</i>
   <i name="RTIME">     -0.10000000</i>
   <i name="WPLASMAI">      0.00000000</i>
   <v name="DFIELD">      0.00000000      0.00000000      0.00000000</v>
   <v name="WPLASMA">      0.00000000      0.00000000      0.00000000      0.00000000      0.00000000      0.00000000      0.00000000      0.00000000      0.00000000</v>
  </separator>
  <separator name="orbital magnetization" >
   <i type="logical" name="NUCIND"> F  </i>
   <v name="MAGPOS">      0.00000000      0.00000000      0.00000000</v>
   <i type="logical" name="LNICSALL"> T  </i>
   <i type="logical" name="ORBITALMAG"> F  </i>
   <i type="logical" name="LMAGBLOCH"> F  </i>
   <i type="logical" name="LCHIMAG"> F  </i>
   <i type="logical" name="LGAUGE"> T  </i>
   <i type="int" name="MAGATOM">     0</i>
   <v name="MAGDIPOL">      0.00000000      0.00000000      0.00000000</v>
   <v name="AVECCONST">      0.00000000      0.00000000      0.00000000</v>
  </separator>
  <separator name="response functions" >
   <i type="logical" name="LADDER"> F  </i>
   <i type="logical" name="LRPAFORCE"> F  </i>
   <i type="logical" name="LFXC"> F  </i>
   <i type="logical" name="LHARTREE"> T  </i>
   <i type="int" name="IBSE">     0</i>
   <v type="int" name="KPOINT">    -1     0     0     0</v>
   <i type="logical" name="LTCTE"> F  </i>
   <i type="logical" name="LTETE"> F  </i>
   <i type="logical" name="LTRIPLET"> F  </i>
   <i type="logical" name="LFXCEPS"> F  </i>
   <i type="logical" name="LFXHEG"> F  </i>
   <i type="int" name="NATURALO">     2</i>
   <i type="logical" name="L2ORDER"> F  </i>
   <i type="logical" name="LMP2LT"> F  </i>
   <i type="logical" name="LUSEW"> F  </i>
   <i name="ENCUTGW">     -2.00000000</i>
   <i name="ENCUTGWSOFT">     -2.00000000</i>
   <i name="ENCUTLF">     -1.00000000</i>
   <i type="int" name="LMAXMP2">    -1</i>
   <i name="SCISSOR">      0.00000000</i>
   <i type="int" name="NOMEGA">     0</i>
   <i type="int" name="NOMEGAR">     0</i>
   <i type="int" name="NBANDSGW">    -1</i>
   <i type="int" name="NBANDSO">    -1</i>
   <i type="int" name="NBANDSV">    -1</i>
   <i type="int" name="NELM">     1</i>
   <i type="int" name="NELMHF">     1</i>
   <i type="int" name="DIM">     3</i>
   <i type="int" name="ANTIRES">     0</i>
   <i name="OMEGAMAX">    -30.00000000</i>
   <i name="OMEGAMIN">    -30.00000000</i>
   <i name="OMEGATL">   -200.00000000</i>
   <i type="int" name="OMEGAGRID">   140</i>
   <i name="CSHIFT">     -0.10000000</i>
   <i type="logical" name="SELFENERGY"> F  </i>
   <i type="logical" name="LSPECTRAL"> F  </i>
   <i type="logical" name="LSPECTRALGW"> F  </i>
   <i type="logical" name="LSINGLES"> F  </i>
   <i type="logical" name="LFERMIGW"> F  </i>
   <i type="logical" name="ODDONLYGW"> F  </i>
   <i type="logical" name="EVENONLYGW"> F  </i>
   <i type="int" name="NKREDLFX">     1</i>
   <i type="int" name="NKREDLFY">     1</i>
   <i type="int" name="NKREDLFZ">     1</i>
   <i type="int" name="MAXMEM">  2800</i>
   <i type="int" name="TELESCOPE">     0</i>
   <i type="int" name="TAUPAR">     1</i>
   <i type="int" name="OMEGAPAR">    -1</i>
   <i name="LAMBDA">      1.00000000</i>
  </separator>
  <separator name="External order field" >
   <i name="OFIELD_KAPPA">      0.00000000</i>
   <v name="OFIELD_K">      0.00000000      0.00000000      0.00000000</v>
   <i name="OFIELD_Q6_NEAR">      0.00000000</i>
   <i name="OFIELD_Q6_FAR">      0.00000000</i>
   <i name="OFIELD_A">      0.00000000</i>
  </separator>
 </parameters>
 <atominfo>
  <atoms>      20 </atoms>
  <types>       1 </types>
  <array name="atoms" >
   <dimension dim="1">ion</dimension>
   <field type="string">element</field>
   <field type="int">atomtype</field>
   <set>
    <rc><c>Pb</c><c>   1</c></rc>
    <rc><c>Pb</c><c>   1</c></rc>
    <rc><c>Pb</c><c>   1</c></rc>
    <rc><c>Pb</c><c>   1</c></rc>
    <rc><c>Pb</c><c>   1</c></rc>
    <rc><c>Pb</c><c>   1</c></rc>
    <rc><c>Pb</c><c>   1</c></rc>
    <rc><c>Pb</c><c>   1</c></rc>
    <rc><c>Pb</c><c>   1</c></rc>
    <rc><c>Pb</c><c>   1</c></rc>
    <rc><c>Pb</c><c>   1</c></rc>
    <rc><c>Pb</c><c>   1</c></rc>
    <rc><c>Pb</c><c>   1</c></rc>
    <rc><c>Pb</c><c>   1</c></rc>
    <rc><c>Pb</c><c>   1</c></rc>
    <rc><c>Pb</c><c>   1</c></rc>
    <rc><c>Pb</c><c>   1</c></rc>
    <rc><c>Pb</c><c>   1</c></rc>
    <rc><c>Pb</c><c>   1</c></rc>
    <rc><c>Pb</c><c>   1</c></rc>
   </set>
  </array>
  <array name="atomtypes" >
   <dimension dim="1">type</dimension>
   <field type="int">atomspertype</field>
   <field type="string">element</field>
   <field>mass</field>
   <field>valence</field>
   <field type="string">pseudopotential</field>
   <set>
    <rc><c>  20</c><c>Pb</c><c>    207.20000000</c><c>     14.00000000</c><c>  PAW_PBE Pb_d 06Sep2000                </c></rc>
   </set>
  </array>
 </atominfo>
 <structure name="initialpos" >
  <crystal>
   <varray name="basis" >
    <v>       2.46549997      -2.46549997       0.00000000 </v>
    <v>       0.00000000       2.46549997      -2.46549997 </v>
    <v>      42.77667205      42.77667205      42.77667205 </v>
   </varray>
   <i name="volume">    780.07840094 </i>
   <varray name="rec_basis" >
    <v>       0.27039816      -0.13519908      -0.13519908 </v>
    <v>       0.13519908       0.13519908      -0.27039816 </v>
    <v>       0.00779241       0.00779241       0.00779241 </v>
   </varray>
  </crystal>
  <varray name="positions" >
   <v>       0.66666695       0.33333389       0.00100113 </v>
   <v>       0.00000027       0.00000054       0.03765430 </v>
   <v>       0.33333362       0.66666722       0.07662113 </v>
   <v>       0.66666695       0.33333389       0.11515777 </v>
   <v>       0.00000027       0.00000054       0.15370069 </v>
   <v>       0.33333362       0.66666722       0.19215792 </v>
   <v>       0.66666695       0.33333389       0.23054211 </v>
   <v>       0.00000027       0.00000054       0.26902470 </v>
   <v>       0.33333362       0.66666722       0.30732515 </v>
   <v>       0.66666695       0.33333389       0.34589073 </v>
   <v>       0.00000027       0.00000054       0.38417229 </v>
   <v>       0.33333362       0.66666722       0.42273787 </v>
   <v>       0.66666695       0.33333389       0.46103832 </v>
   <v>       0.00000027       0.00000054       0.49952092 </v>
   <v>       0.33333362       0.66666722       0.53790510 </v>
   <v>       0.66666695       0.33333389       0.57636234 </v>
   <v>       0.00000027       0.00000054       0.61490526 </v>
   <v>       0.33333362       0.66666722       0.65344190 </v>
   <v>       0.66666695       0.33333389       0.69240872 </v>
   <v>       0.00000027       0.00000054       0.72906189 </v>
  </varray>
 </structure>
 <calculation>
  <scstep>
   <time name="dav">   63.46   63.52</time>
   <time name="total">   63.51   63.58</time>
   <energy>
    <i name="alphaZ">    841.29232037 </i>
    <i name="ewald"> 198660.53375098 </i>
    <i name="hartreedc">-231428.50577126 </i>
    <i name="XCdc">    760.73929483 </i>
    <i name="pawpsdc">  28708.20636287 </i>
    <i name="pawaedc"> -28374.82945683 </i>
    <i name="eentropy">      0.00237605 </i>
    <i name="bandstr">   1054.50558568 </i>
    <i name="atom">  33232.23268158 </i>
    <i name="e_fr_energy">   3454.17714428 </i>
    <i name="e_wo_entrp">   3454.17476823 </i>
    <i name="e_0_energy">   3454.17635227 </i>
   </energy>
  </scstep>
  <scstep>
   <time name="dav">   63.11   63.17</time>
   <time name="total">   63.12   63.18</time>
   <energy>
    <i name="e_fr_energy">    412.36067235 </i>
    <i name="e_wo_entrp">    412.36182681 </i>
    <i name="e_0_energy">    412.36105717 </i>
   </energy>
  </scstep>
  <scstep>
   <time name="dav">   68.06   68.12</time>
   <time name="total">   68.07   68.13</time>
   <energy>
    <i name="e_fr_energy">    -40.48450437 </i>
    <i name="e_wo_entrp">    -40.48290814 </i>
    <i name="e_0_energy">    -40.48397229 </i>
   </energy>
  </scstep>
  <scstep>
   <time name="dav">   75.26   75.32</time>
   <time name="total">   75.27   75.33</time>
   <energy>
    <i name="e_fr_energy">    -69.73199878 </i>
    <i name="e_wo_entrp">    -69.73273636 </i>
    <i name="e_0_energy">    -69.73224464 </i>
   </energy>
  </scstep>
  <scstep>
   <time name="dav">   78.85   78.90</time>
   <time name="total">   79.88   79.94</time>
   <energy>
    <i name="e_fr_energy">    -70.89794785 </i>
    <i name="e_wo_entrp">    -70.89881032 </i>
    <i name="e_0_energy">    -70.89823534 </i>
   </energy>
  </scstep>
  <scstep>
   <time name="dav">   98.75   98.82</time>
   <time name="total">   99.83   99.90</time>
   <energy>
    <i name="e_fr_energy">    -73.83982251 </i>
    <i name="e_wo_entrp">    -73.84139880 </i>
    <i name="e_0_energy">    -73.84034794 </i>
   </energy>
  </scstep>
  <scstep>
   <time name="dav">   92.48   92.69</time>
   <time name="total">   93.55   93.76</time>
   <energy>
    <i name="e_fr_energy">    -71.70338664 </i>
    <i name="e_wo_entrp">    -71.70392867 </i>
    <i name="e_0_energy">    -71.70356731 </i>
   </energy>
  </scstep>
  <scstep>
   <time name="dav">   97.77   97.85</time>
   <time name="total">   98.83   98.91</time>
   <energy>
    <i name="e_fr_energy">    -72.91163860 </i>
    <i name="e_wo_entrp">    -72.90863647 </i>
    <i name="e_0_energy">    -72.91063789 </i>
   </energy>
  </scstep>
  <scstep>
   <time name="dav">   94.26   94.33</time>
   <time name="total">   95.34   95.41</time>
   <energy>
    <i name="e_fr_energy">    -70.70830664 </i>
    <i name="e_wo_entrp">    -70.70848201 </i>
    <i name="e_0_energy">    -70.70836509 </i>
   </energy>
  </scstep>
  <scstep>
   <time name="dav">   91.12   91.18</time>
   <time name="total">   92.18   92.25</time>
   <energy>
    <i name="e_fr_energy">    -70.61958822 </i>
    <i name="e_wo_entrp">    -70.62102847 </i>
    <i name="e_0_energy">    -70.62006830 </i>
   </energy>
  </scstep>
  <scstep>
   <time name="dav">   82.97   83.03</time>
   <time name="total">   84.03   84.09</time>
   <energy>
    <i name="e_fr_energy">    -70.61823492 </i>
    <i name="e_wo_entrp">    -70.61947383 </i>
    <i name="e_0_energy">    -70.61864789 </i>
   </energy>
  </scstep>
  <scstep>
   <time name="dav">   76.83   76.89</time>
   <time name="total">   77.90   77.97</time>
   <energy>
    <i name="e_fr_energy">    -70.61914501 </i>
    <i name="e_wo_entrp">    -70.62055048 </i>
    <i name="e_0_energy">    -70.61961350 </i>
   </energy>
  </scstep>
  <scstep>
   <time name="dav">   74.97   75.03</time>
   <time name="total">   76.05   76.11</time>
   <energy>
    <i name="e_fr_energy">    -70.61817950 </i>
    <i name="e_wo_entrp">    -70.61940859 </i>
    <i name="e_0_energy">    -70.61858920 </i>
   </energy>
  </scstep>
  <scstep>
   <time name="dav">   74.97   75.03</time>
   <time name="total">   76.04   76.10</time>
   <energy>
    <i name="e_fr_energy">    -70.61823201 </i>
    <i name="e_wo_entrp">    -70.61950568 </i>
    <i name="e_0_energy">    -70.61865657 </i>
   </energy>
  </scstep>
  <scstep>
   <time name="dav">   75.92   75.97</time>
   <time name="total">   76.98   77.04</time>
   <energy>
    <i name="e_fr_energy">    -70.61802245 </i>
    <i name="e_wo_entrp">    -70.61927256 </i>
    <i name="e_0_energy">    -70.61843916 </i>
   </energy>
  </scstep>
  <scstep>
   <time name="dav">   77.57   77.64</time>
   <time name="total">   78.64   78.72</time>
   <energy>
    <i name="e_fr_energy">    -70.61784852 </i>
    <i name="e_wo_entrp">    -70.61912074 </i>
    <i name="e_0_energy">    -70.61827259 </i>
   </energy>
  </scstep>
  <scstep>
   <time name="dav">   68.63   68.68</time>
   <time name="total">   69.70   69.75</time>
   <energy>
    <i name="e_fr_energy">    -70.61793374 </i>
    <i name="e_wo_entrp">    -70.61919246 </i>
    <i name="e_0_energy">    -70.61835331 </i>
   </energy>
  </scstep>
  <scstep>
   <time name="dav">   71.89   71.95</time>
   <time name="total">   72.96   73.02</time>
   <energy>
    <i name="e_fr_energy">    -70.61800070 </i>
    <i name="e_wo_entrp">    -70.61925651 </i>
    <i name="e_0_energy">    -70.61841930 </i>
   </energy>
  </scstep>
  <scstep>
   <time name="dav">   69.80   69.89</time>
   <time name="total">   70.88   70.96</time>
   <energy>
    <i name="e_fr_energy">    -70.61813421 </i>
    <i name="e_wo_entrp">    -70.61937710 </i>
    <i name="e_0_energy">    -70.61854851 </i>
   </energy>
  </scstep>
  <scstep>
   <time name="dav">   70.15   70.21</time>
   <time name="total">   71.22   71.27</time>
   <energy>
    <i name="e_fr_energy">    -70.61820561 </i>
    <i name="e_wo_entrp">    -70.61945470 </i>
    <i name="e_0_energy">    -70.61862198 </i>
   </energy>
  </scstep>
  <scstep>
   <time name="dav">   62.92   62.98</time>
   <time name="total">   64.00   64.05</time>
   <energy>
    <i name="e_fr_energy">    -70.61827984 </i>
    <i name="e_wo_entrp">    -70.61952740 </i>
    <i name="e_0_energy">    -70.61869569 </i>
   </energy>
  </scstep>
  <scstep>
   <time name="dav">   54.38   54.42</time>
   <time name="total">   55.45   55.49</time>
   <energy>
    <i name="e_fr_energy">    -70.61831868 </i>
    <i name="e_wo_entrp">    -70.61956615 </i>
    <i name="e_0_energy">    -70.61873451 </i>
   </energy>
  </scstep>
  <scstep>
   <time name="dav">   53.20   53.26</time>
   <time name="total">   54.28   54.34</time>
   <energy>
    <i name="e_fr_energy">    -70.61835411 </i>
    <i name="e_wo_entrp">    -70.61960082 </i>
    <i name="e_0_energy">    -70.61876968 </i>
   </energy>
  </scstep>
  <scstep>
   <time name="dav">   52.80   52.85</time>
   <time name="total">   53.89   53.95</time>
   <energy>
    <i name="e_fr_energy">    -70.61836871 </i>
    <i name="e_wo_entrp">    -70.61961534 </i>
    <i name="e_0_energy">    -70.61878426 </i>
   </energy>
  </scstep>
  <scstep>
   <time name="dav">   51.49   51.53</time>
   <time name="total">   52.55   52.59</time>
   <energy>
    <i name="e_fr_energy">    -70.61837448 </i>
    <i name="e_wo_entrp">    -70.61962098 </i>
    <i name="e_0_energy">    -70.61878998 </i>
   </energy>
  </scstep>
  <scstep>
   <time name="dav">   51.97   52.00</time>
   <time name="total">   53.05   53.08</time>
   <energy>
    <i name="e_fr_energy">    -70.61837688 </i>
    <i name="e_wo_entrp">    -70.61962340 </i>
    <i name="e_0_energy">    -70.61879239 </i>
   </energy>
  </scstep>
  <scstep>
   <time name="dav">   54.16   54.20</time>
   <time name="total">   54.20   54.25</time>
   <energy>
    <i name="alphaZ">    841.29232037 </i>
    <i name="ewald"> 198660.53375098 </i>
    <i name="hartreedc">-231428.50307622 </i>
    <i name="XCdc">    757.33609160 </i>
    <i name="pawpsdc">  30110.48501820 </i>
    <i name="pawaedc"> -29789.40956616 </i>
    <i name="eentropy">      0.00124649 </i>
    <i name="bandstr">  -2454.58684443 </i>
    <i name="atom">  33232.23268158 </i>
    <i name="e_fr_energy">    -70.61837758 </i>
    <i name="e_wo_entrp">    -70.61962407 </i>
    <i name="e_0_energy">    -70.61879308 </i>
   </energy>
  </scstep>
  <structure>
   <crystal>
    <varray name="basis" >
     <v>       2.46549997      -2.46549997       0.00000000 </v>
     <v>       0.00000000       2.46549997      -2.46549997 </v>
     <v>      42.77667205      42.77667205      42.77667205 </v>
    </varray>
    <i name="volume">    780.07840094 </i>
    <varray name="rec_basis" >
     <v>       0.27039816      -0.13519908      -0.13519908 </v>
     <v>       0.13519908       0.13519908      -0.27039816 </v>
     <v>       0.00779241       0.00779241       0.00779241 </v>
    </varray>
   </crystal>
   <varray name="positions" >
    <v>       0.66666695       0.33333389       0.00100113 </v>
    <v>       0.00000027       0.00000054       0.03765430 </v>
    <v>       0.33333362       0.66666722       0.07662113 </v>
    <v>       0.66666695       0.33333389       0.11515777 </v>
    <v>       0.00000027       0.00000054       0.15370069 </v>
    <v>       0.33333362       0.66666722       0.19215792 </v>
    <v>       0.66666695       0.33333389       0.23054211 </v>
    <v>       0.00000027       0.00000054       0.26902470 </v>
    <v>       0.33333362       0.66666722       0.30732515 </v>
    <v>       0.66666695       0.33333389       0.34589073 </v>
    <v>       0.00000027       0.00000054       0.38417229 </v>
    <v>       0.33333362       0.66666722       0.42273787 </v>
    <v>       0.66666695       0.33333389       0.46103832 </v>
    <v>       0.00000027       0.00000054       0.49952092 </v>
    <v>       0.33333362       0.66666722       0.53790510 </v>
    <v>       0.66666695       0.33333389       0.57636234 </v>
    <v>       0.00000027       0.00000054       0.61490526 </v>
    <v>       0.33333362       0.66666722       0.65344190 </v>
    <v>       0.66666695       0.33333389       0.69240872 </v>
    <v>       0.00000027       0.00000054       0.72906189 </v>
   </varray>
  </structure>
  <varray name="forces" >
   <v>      -0.12428261      -0.12428261      -0.12428261 </v>
   <v>       0.01803713       0.01803713       0.01803713 </v>
   <v>      -0.00345441      -0.00345441      -0.00345441 </v>
   <v>      -0.00139809      -0.00139809      -0.00139809 </v>
   <v>      -0.00200863      -0.00200863      -0.00200863 </v>
   <v>      -0.00193769      -0.00193769      -0.00193769 </v>
   <v>       0.00132332       0.00132332       0.00132332 </v>
   <v>      -0.00099378      -0.00099378      -0.00099378 </v>
   <v>      -0.00039821      -0.00039821      -0.00039821 </v>
   <v>       0.00030413       0.00030413       0.00030413 </v>
   <v>      -0.00030413      -0.00030413      -0.00030413 </v>
   <v>       0.00039821       0.00039821       0.00039821 </v>
   <v>       0.00099378       0.00099378       0.00099378 </v>
   <v>      -0.00132332      -0.00132332      -0.00132332 </v>
   <v>       0.00193769       0.00193769       0.00193769 </v>
   <v>       0.00200863       0.00200863       0.00200863 </v>
   <v>       0.00139809       0.00139809       0.00139809 </v>
   <v>       0.00345441       0.00345441       0.00345441 </v>
   <v>      -0.01803713      -0.01803713      -0.01803713 </v>
   <v>       0.12428261       0.12428261       0.12428261 </v>
  </varray>
  <varray name="stress" >
   <v>      20.85606255       0.14845220       0.14845220 </v>
   <v>       0.14845220      20.85606255       0.14845220 </v>
   <v>       0.14845220       0.14845220      20.85606255 </v>
  </varray>
  <energy>
   <i name="e_fr_energy">    -70.61837758 </i>
   <i name="e_wo_entrp">    -70.61879308 </i>
   <i name="e_0_energy">      0.00124649 </i>
  </energy>
  <time name="totalsc"> 2066.79 2069.96</time>
  <eigenvalues>
   <array>
    <dimension dim="1">band</dimension>
    <dimension dim="2">kpoint</dimension>
    <dimension dim="3">spin</dimension>
    <field>eigene</field>
    <field>occ</field>
    <set>
     <set comment="spin 1">
      <set comment="kpoint 1">
       <r>  -12.2990    1.0000 </r>
       <r>  -12.2988    1.0000 </r>
       <r>  -12.2915    1.0000 </r>
       <r>  -12.2907    1.0000 </r>
       <r>  -12.2885    1.0000 </r>
       <r>  -12.2847    1.0000 </r>
       <r>  -12.2808    1.0000 </r>
       <r>  -12.2770    1.0000 </r>
       <r>  -12.2704    1.0000 </r>
       <r>  -12.2647    1.0000 </r>
       <r>  -12.2646    1.0000 </r>
       <r>  -12.2630    1.0000 </r>
       <r>  -12.2630    1.0000 </r>
       <r>  -12.2627    1.0000 </r>
       <r>  -12.2627    1.0000 </r>
       <r>  -12.2617    1.0000 </r>
       <r>  -12.2608    1.0000 </r>
       <r>  -12.2602    1.0000 </r>
       <r>  -12.2578    1.0000 </r>
       <r>  -12.2576    1.0000 </r>
       <r>  -12.2575    1.0000 </r>
       <r>  -12.2575    1.0000 </r>
       <r>  -12.2536    1.0000 </r>
       <r>  -12.2534    1.0000 </r>
       <r>  -12.2528    1.0000 </r>
       <r>  -12.2528    1.0000 </r>
       <r>  -12.2480    1.0000 </r>
       <r>  -12.2480    1.0000 </r>
       <r>  -12.2473    1.0000 </r>
       <r>  -12.2473    1.0000 </r>
       <r>  -12.2456    1.0000 </r>
       <r>  -12.2456    1.0000 </r>
       <r>  -12.2438    1.0000 </r>
       <r>  -12.2438    1.0000 </r>
       <r>  -12.2388    1.0000 </r>
       <r>  -12.2388    1.0000 </r>
       <r>  -12.2387    1.0000 </r>
       <r>  -12.2387    1.0000 </r>
       <r>  -12.2334    1.0000 </r>
       <r>  -12.2334    1.0000 </r>
       <r>  -12.2321    1.0000 </r>
       <r>  -12.2321    1.0000 </r>
       <r>  -12.2297    1.0000 </r>
       <r>  -12.2297    1.0000 </r>
       <r>  -12.2276    1.0000 </r>
       <r>  -12.2276    1.0000 </r>
       <r>  -12.2241    1.0000 </r>
       <r>  -12.2241    1.0000 </r>
       <r>  -12.2226    1.0000 </r>
       <r>  -12.2226    1.0000 </r>
       <r>  -12.2191    1.0000 </r>
       <r>  -12.2190    1.0000 </r>
       <r>  -12.2110    1.0000 </r>
       <r>  -12.2110    1.0000 </r>
       <r>  -12.2109    1.0000 </r>
       <r>  -12.2109    1.0000 </r>
       <r>  -12.2070    1.0000 </r>
       <r>  -12.2070    1.0000 </r>
       <r>  -12.2069    1.0000 </r>
       <r>  -12.2069    1.0000 </r>
       <r>  -12.1167    1.0000 </r>
       <r>  -12.1167    1.0000 </r>
       <r>  -12.1163    1.0000 </r>
       <r>  -12.1163    1.0000 </r>
       <r>  -12.1152    1.0000 </r>
       <r>  -12.1152    1.0000 </r>
       <r>  -12.1146    1.0000 </r>
       <r>  -12.1146    1.0000 </r>
       <r>  -12.1136    1.0000 </r>
       <r>  -12.1136    1.0000 </r>
       <r>  -12.1107    1.0000 </r>
       <r>  -12.1107    1.0000 </r>
       <r>  -12.1042    1.0000 </r>
       <r>  -12.1042    1.0000 </r>
       <r>  -12.0956    1.0000 </r>
       <r>  -12.0956    1.0000 </r>
       <r>  -12.0836    1.0000 </r>
       <r>  -12.0836    1.0000 </r>
       <r>  -12.0809    1.0000 </r>
       <r>  -12.0809    1.0000 </r>
       <r>  -12.0754    1.0000 </r>
       <r>  -12.0754    1.0000 </r>
       <r>  -12.0534    1.0000 </r>
       <r>  -12.0534    1.0000 </r>
       <r>  -12.0380    1.0000 </r>
       <r>  -12.0380    1.0000 </r>
       <r>  -12.0213    1.0000 </r>
       <r>  -12.0213    1.0000 </r>
       <r>  -12.0071    1.0000 </r>
       <r>  -12.0071    1.0000 </r>
       <r>  -11.9958    1.0000 </r>
       <r>  -11.9958    1.0000 </r>
       <r>  -11.9850    1.0000 </r>
       <r>  -11.9850    1.0000 </r>
       <r>  -11.9780    1.0000 </r>
       <r>  -11.9780    1.0000 </r>
       <r>  -11.9644    1.0000 </r>
       <r>  -11.9644    1.0000 </r>
       <r>  -11.9643    1.0000 </r>
       <r>  -11.9643    1.0000 </r>
       <r>   -6.9999    1.0000 </r>
       <r>   -6.9633    1.0000 </r>
       <r>   -6.9102    1.0000 </r>
       <r>   -6.8419    1.0000 </r>
       <r>   -6.7504    1.0000 </r>
       <r>   -6.6314    1.0000 </r>
       <r>   -6.4855    1.0000 </r>
       <r>   -6.3137    1.0000 </r>
       <r>   -6.1222    1.0000 </r>
       <r>   -5.8876    1.0000 </r>
       <r>   -5.6515    1.0000 </r>
       <r>   -5.3639    1.0000 </r>
       <r>   -5.0820    1.0000 </r>
       <r>   -4.7853    1.0000 </r>
       <r>   -4.4874    1.0000 </r>
       <r>   -4.1970    1.0000 </r>
       <r>   -3.9252    1.0000 </r>
       <r>   -3.6910    1.0000 </r>
       <r>   -3.4996    1.0000 </r>
       <r>   -3.3663    1.0000 </r>
       <r>    0.6292    1.0000 </r>
       <r>    0.8325    1.0000 </r>
       <r>    1.1441    1.0000 </r>
       <r>    1.5399    1.0000 </r>
       <r>    2.0041    1.0000 </r>
       <r>    2.5257    1.0000 </r>
       <r>    3.0945    1.0000 </r>
       <r>    3.7032    1.0000 </r>
       <r>    4.3430    1.0000 </r>
       <r>    5.0204   -0.0253 </r>
       <r>    5.6965   -0.0000 </r>
       <r>    6.3944   -0.0000 </r>
       <r>    7.0493   -0.0000 </r>
       <r>    7.6588    0.0000 </r>
       <r>    8.1258    0.0000 </r>
       <r>    8.5191    0.0000 </r>
       <r>    8.6320    0.0000 </r>
       <r>    9.2003    0.0000 </r>
       <r>    9.3154    0.0000 </r>
       <r>   10.0647    0.0000 </r>
       <r>   10.1408    0.0000 </r>
       <r>   10.4765    0.0000 </r>
       <r>   10.4765    0.0000 </r>
       <r>   10.5057    0.0000 </r>
       <r>   10.5057    0.0000 </r>
       <r>   10.5479    0.0000 </r>
       <r>   10.5479    0.0000 </r>
       <r>   10.6008    0.0000 </r>
       <r>   10.6008    0.0000 </r>
       <r>   10.6689    0.0000 </r>
       <r>   10.6689    0.0000 </r>
       <r>   10.7550    0.0000 </r>
       <r>   10.7550    0.0000 </r>
       <r>   10.8572    0.0000 </r>
       <r>   10.8572    0.0000 </r>
       <r>   10.9730    0.0000 </r>
       <r>   10.9730    0.0000 </r>
       <r>   10.9885    0.0000 </r>
       <r>   11.0347    0.0000 </r>
       <r>   11.0962    0.0000 </r>
       <r>   11.0962    0.0000 </r>
       <r>   11.2381    0.0000 </r>
       <r>   11.2381    0.0000 </r>
       <r>   11.3751    0.0000 </r>
       <r>   11.3751    0.0000 </r>
       <r>   11.5320    0.0000 </r>
       <r>   11.5320    0.0000 </r>
       <r>   11.6773    0.0000 </r>
       <r>   11.6773    0.0000 </r>
       <r>   11.7537    0.0000 </r>
       <r>   11.8188    0.0000 </r>
       <r>   11.8188    0.0000 </r>
       <r>   11.9487    0.0000 </r>
       <r>   11.9487    0.0000 </r>
       <r>   12.0096    0.0000 </r>
       <r>   12.0633    0.0000 </r>
       <r>   12.0633    0.0000 </r>
       <r>   12.1606    0.0000 </r>
       <r>   12.1606    0.0000 </r>
       <r>   12.2352    0.0000 </r>
       <r>   12.2352    0.0000 </r>
       <r>   12.2881    0.0000 </r>
       <r>   12.2881    0.0000 </r>
       <r>   12.3201    0.0000 </r>
       <r>   12.3201    0.0000 </r>
       <r>   12.3625    0.0000 </r>
       <r>   13.3991    0.0000 </r>
       <r>   13.8067    0.0000 </r>
       <r>   13.8077    0.0000 </r>
       <r>   13.8146    0.0000 </r>
       <r>   13.8341    0.0000 </r>
       <r>   13.8483    0.0000 </r>
       <r>   13.8646    0.0000 </r>
       <r>   13.8738    0.0000 </r>
       <r>   13.9162    0.0000 </r>
       <r>   13.9357    0.0000 </r>
       <r>   13.9675    0.0000 </r>
       <r>   13.9924    0.0000 </r>
       <r>   14.0299    0.0000 </r>
       <r>   14.0710    0.0000 </r>
       <r>   14.1389    0.0000 </r>
       <r>   14.1948    0.0000 </r>
       <r>   14.2080    0.0000 </r>
       <r>   14.2919    0.0000 </r>
       <r>   14.3471    0.0000 </r>
       <r>   14.4561    0.0000 </r>
       <r>   14.4743    0.0000 </r>
       <r>   14.5367    0.0000 </r>
       <r>   14.5908    0.0000 </r>
       <r>   14.7313    0.0000 </r>
       <r>   14.9175    0.0000 </r>
       <r>   14.9211    0.0000 </r>
       <r>   15.1197    0.0000 </r>
       <r>   15.3250    0.0000 </r>
       <r>   15.5606    0.0000 </r>
       <r>   15.7980    0.0000 </r>
       <r>   16.0613    0.0000 </r>
       <r>   16.1070    0.0000 </r>
       <r>   16.1070    0.0000 </r>
       <r>   16.1426    0.0000 </r>
       <r>   16.1426    0.0000 </r>
       <r>   16.1855    0.0000 </r>
       <r>   16.1988    0.0000 </r>
       <r>   16.1988    0.0000 </r>
       <r>   16.2746    0.0000 </r>
       <r>   16.2746    0.0000 </r>
       <r>   16.3681    0.0000 </r>
       <r>   16.3711    0.0000 </r>
       <r>   16.3711    0.0000 </r>
       <r>   16.4913    0.0000 </r>
       <r>   16.4913    0.0000 </r>
       <r>   16.4942    0.0000 </r>
       <r>   16.5105    0.0000 </r>
       <r>   16.6344    0.0000 </r>
       <r>   16.6344    0.0000 </r>
       <r>   16.6582    0.0000 </r>
       <r>   16.7706    0.0000 </r>
       <r>   16.7989    0.0000 </r>
       <r>   16.7990    0.0000 </r>
       <r>   16.9511    0.0000 </r>
       <r>   16.9823    0.0000 </r>
       <r>   16.9823    0.0000 </r>
       <r>   16.9876    0.0000 </r>
       <r>   17.1903    0.0000 </r>
       <r>   17.1903    0.0000 </r>
       <r>   17.2455    0.0000 </r>
       <r>   17.3027    0.0000 </r>
       <r>   17.4095    0.0000 </r>
       <r>   17.4117    0.0000 </r>
       <r>   17.4202    0.0000 </r>
      </set>
      <set comment="kpoint 2">
       <r>  -12.2969    1.0000 </r>
       <r>  -12.2968    1.0000 </r>
       <r>  -12.2890    1.0000 </r>
       <r>  -12.2886    1.0000 </r>
       <r>  -12.2865    1.0000 </r>
       <r>  -12.2832    1.0000 </r>
       <r>  -12.2799    1.0000 </r>
       <r>  -12.2767    1.0000 </r>
       <r>  -12.2712    1.0000 </r>
       <r>  -12.2650    1.0000 </r>
       <r>  -12.2648    1.0000 </r>
       <r>  -12.2641    1.0000 </r>
       <r>  -12.2640    1.0000 </r>
       <r>  -12.2639    1.0000 </r>
       <r>  -12.2630    1.0000 </r>
       <r>  -12.2625    1.0000 </r>
       <r>  -12.2608    1.0000 </r>
       <r>  -12.2598    1.0000 </r>
       <r>  -12.2596    1.0000 </r>
       <r>  -12.2594    1.0000 </r>
       <r>  -12.2592    1.0000 </r>
       <r>  -12.2547    1.0000 </r>
       <r>  -12.2545    1.0000 </r>
       <r>  -12.2511    1.0000 </r>
       <r>  -12.2498    1.0000 </r>
       <r>  -12.2488    1.0000 </r>
       <r>  -12.2470    1.0000 </r>
       <r>  -12.2465    1.0000 </r>
       <r>  -12.2443    1.0000 </r>
       <r>  -12.2439    1.0000 </r>
       <r>  -12.2434    1.0000 </r>
       <r>  -12.2421    1.0000 </r>
       <r>  -12.2416    1.0000 </r>
       <r>  -12.2399    1.0000 </r>
       <r>  -12.2383    1.0000 </r>
       <r>  -12.2358    1.0000 </r>
       <r>  -12.2355    1.0000 </r>
       <r>  -12.2346    1.0000 </r>
       <r>  -12.2330    1.0000 </r>
       <r>  -12.2297    1.0000 </r>
       <r>  -12.2297    1.0000 </r>
       <r>  -12.2289    1.0000 </r>
       <r>  -12.2287    1.0000 </r>
       <r>  -12.2260    1.0000 </r>
       <r>  -12.2253    1.0000 </r>
       <r>  -12.2241    1.0000 </r>
       <r>  -12.2230    1.0000 </r>
       <r>  -12.2210    1.0000 </r>
       <r>  -12.2205    1.0000 </r>
       <r>  -12.2194    1.0000 </r>
       <r>  -12.2192    1.0000 </r>
       <r>  -12.2183    1.0000 </r>
       <r>  -12.2098    1.0000 </r>
       <r>  -12.2097    1.0000 </r>
       <r>  -12.2076    1.0000 </r>
       <r>  -12.2075    1.0000 </r>
       <r>  -12.2047    1.0000 </r>
       <r>  -12.2046    1.0000 </r>
       <r>  -12.2031    1.0000 </r>
       <r>  -12.2030    1.0000 </r>
       <r>  -12.1229    1.0000 </r>
       <r>  -12.1216    1.0000 </r>
       <r>  -12.1214    1.0000 </r>
       <r>  -12.1201    1.0000 </r>
       <r>  -12.1186    1.0000 </r>
       <r>  -12.1172    1.0000 </r>
       <r>  -12.1153    1.0000 </r>
       <r>  -12.1140    1.0000 </r>
       <r>  -12.1132    1.0000 </r>
       <r>  -12.1120    1.0000 </r>
       <r>  -12.1101    1.0000 </r>
       <r>  -12.1092    1.0000 </r>
       <r>  -12.1040    1.0000 </r>
       <r>  -12.1032    1.0000 </r>
       <r>  -12.0957    1.0000 </r>
       <r>  -12.0950    1.0000 </r>
       <r>  -12.0845    1.0000 </r>
       <r>  -12.0835    1.0000 </r>
       <r>  -12.0819    1.0000 </r>
       <r>  -12.0808    1.0000 </r>
       <r>  -12.0760    1.0000 </r>
       <r>  -12.0751    1.0000 </r>
       <r>  -12.0545    1.0000 </r>
       <r>  -12.0533    1.0000 </r>
       <r>  -12.0395    1.0000 </r>
       <r>  -12.0379    1.0000 </r>
       <r>  -12.0232    1.0000 </r>
       <r>  -12.0211    1.0000 </r>
       <r>  -12.0094    1.0000 </r>
       <r>  -12.0069    1.0000 </r>
       <r>  -11.9984    1.0000 </r>
       <r>  -11.9956    1.0000 </r>
       <r>  -11.9878    1.0000 </r>
       <r>  -11.9847    1.0000 </r>
       <r>  -11.9811    1.0000 </r>
       <r>  -11.9777    1.0000 </r>
       <r>  -11.9671    1.0000 </r>
       <r>  -11.9669    1.0000 </r>
       <r>  -11.9641    1.0000 </r>
       <r>  -11.9640    1.0000 </r>
       <r>   -6.9722    1.0000 </r>
       <r>   -6.9356    1.0000 </r>
       <r>   -6.8825    1.0000 </r>
       <r>   -6.8141    1.0000 </r>
       <r>   -6.7226    1.0000 </r>
       <r>   -6.6036    1.0000 </r>
       <r>   -6.4578    1.0000 </r>
       <r>   -6.2860    1.0000 </r>
       <r>   -6.0947    1.0000 </r>
       <r>   -5.8602    1.0000 </r>
       <r>   -5.6244    1.0000 </r>
       <r>   -5.3372    1.0000 </r>
       <r>   -5.0557    1.0000 </r>
       <r>   -4.7594    1.0000 </r>
       <r>   -4.4622    1.0000 </r>
       <r>   -4.1726    1.0000 </r>
       <r>   -3.9017    1.0000 </r>
       <r>   -3.6684    1.0000 </r>
       <r>   -3.4777    1.0000 </r>
       <r>   -3.3452    1.0000 </r>
       <r>    0.6618    1.0000 </r>
       <r>    0.8643    1.0000 </r>
       <r>    1.1747    1.0000 </r>
       <r>    1.5692    1.0000 </r>
       <r>    2.0320    1.0000 </r>
       <r>    2.5521    1.0000 </r>
       <r>    3.1192    1.0000 </r>
       <r>    3.7262    1.0000 </r>
       <r>    4.3639    1.0000 </r>
       <r>    5.0391   -0.0169 </r>
       <r>    5.7128   -0.0000 </r>
       <r>    6.4082   -0.0000 </r>
       <r>    7.0614   -0.0000 </r>
       <r>    7.6708    0.0000 </r>
       <r>    8.1418    0.0000 </r>
       <r>    8.5338    0.0000 </r>
       <r>    8.6500    0.0000 </r>
       <r>    9.2098    0.0000 </r>
       <r>    9.3226    0.0000 </r>
       <r>   10.0593    0.0000 </r>
       <r>   10.0889    0.0000 </r>
       <r>   10.1182    0.0000 </r>
       <r>   10.1332    0.0000 </r>
       <r>   10.1631    0.0000 </r>
       <r>   10.2178    0.0000 </r>
       <r>   10.2891    0.0000 </r>
       <r>   10.3341    0.0000 </r>
       <r>   10.3650    0.0000 </r>
       <r>   10.3777    0.0000 </r>
       <r>   10.4099    0.0000 </r>
       <r>   10.4666    0.0000 </r>
       <r>   10.4849    0.0000 </r>
       <r>   10.5398    0.0000 </r>
       <r>   10.6054    0.0000 </r>
       <r>   10.6324    0.0000 </r>
       <r>   10.7374    0.0000 </r>
       <r>   10.7427    0.0000 </r>
       <r>   10.8680    0.0000 </r>
       <r>   10.8836    0.0000 </r>
       <r>   10.9528    0.0000 </r>
       <r>   11.0023    0.0000 </r>
       <r>   11.0150    0.0000 </r>
       <r>   11.0535    0.0000 </r>
       <r>   11.1576    0.0000 </r>
       <r>   11.2191    0.0000 </r>
       <r>   11.3086    0.0000 </r>
       <r>   11.3764    0.0000 </r>
       <r>   11.4818    0.0000 </r>
       <r>   11.5447    0.0000 </r>
       <r>   11.6215    0.0000 </r>
       <r>   11.6428    0.0000 </r>
       <r>   11.7184    0.0000 </r>
       <r>   11.8001    0.0000 </r>
       <r>   11.8443    0.0000 </r>
       <r>   11.8789    0.0000 </r>
       <r>   11.9451    0.0000 </r>
       <r>   11.9927    0.0000 </r>
       <r>   12.0403    0.0000 </r>
       <r>   12.0735    0.0000 </r>
       <r>   12.0959    0.0000 </r>
       <r>   12.1382    0.0000 </r>
       <r>   12.1828    0.0000 </r>
       <r>   12.2671    0.0000 </r>
       <r>   12.3278    0.0000 </r>
       <r>   12.3652    0.0000 </r>
       <r>   12.3694    0.0000 </r>
       <r>   13.4252    0.0000 </r>
       <r>   13.8209    0.0000 </r>
       <r>   13.8387    0.0000 </r>
       <r>   13.8642    0.0000 </r>
       <r>   13.8872    0.0000 </r>
       <r>   13.9181    0.0000 </r>
       <r>   13.9421    0.0000 </r>
       <r>   13.9669    0.0000 </r>
       <r>   13.9993    0.0000 </r>
       <r>   14.0393    0.0000 </r>
       <r>   14.0820    0.0000 </r>
       <r>   14.1366    0.0000 </r>
       <r>   14.1804    0.0000 </r>
       <r>   14.2198    0.0000 </r>
       <r>   14.2395    0.0000 </r>
       <r>   14.2474    0.0000 </r>
       <r>   14.2861    0.0000 </r>
       <r>   14.2964    0.0000 </r>
       <r>   14.3611    0.0000 </r>
       <r>   14.4207    0.0000 </r>
       <r>   14.4577    0.0000 </r>
       <r>   14.6641    0.0000 </r>
       <r>   14.7220    0.0000 </r>
       <r>   14.8123    0.0000 </r>
       <r>   14.9183    0.0000 </r>
       <r>   14.9638    0.0000 </r>
       <r>   15.0653    0.0000 </r>
       <r>   15.2236    0.0000 </r>
       <r>   15.4045    0.0000 </r>
       <r>   15.6032    0.0000 </r>
       <r>   15.8252    0.0000 </r>
       <r>   16.0422    0.0000 </r>
       <r>   16.1743    0.0000 </r>
       <r>   16.2093    0.0000 </r>
       <r>   16.2645    0.0000 </r>
       <r>   16.2671    0.0000 </r>
       <r>   16.3066    0.0000 </r>
       <r>   16.3386    0.0000 </r>
       <r>   16.4298    0.0000 </r>
       <r>   16.4332    0.0000 </r>
       <r>   16.4656    0.0000 </r>
       <r>   16.5053    0.0000 </r>
       <r>   16.5461    0.0000 </r>
       <r>   16.5514    0.0000 </r>
       <r>   16.6158    0.0000 </r>
       <r>   16.6565    0.0000 </r>
       <r>   16.6815    0.0000 </r>
       <r>   16.6922    0.0000 </r>
       <r>   16.7585    0.0000 </r>
       <r>   16.7818    0.0000 </r>
       <r>   16.8544    0.0000 </r>
       <r>   16.8646    0.0000 </r>
       <r>   16.9200    0.0000 </r>
       <r>   16.9700    0.0000 </r>
       <r>   17.0350    0.0000 </r>
       <r>   17.0401    0.0000 </r>
       <r>   17.0708    0.0000 </r>
       <r>   17.2132    0.0000 </r>
       <r>   17.2398    0.0000 </r>
       <r>   17.2487    0.0000 </r>
       <r>   17.2832    0.0000 </r>
       <r>   17.4461    0.0000 </r>
       <r>   17.4517    0.0000 </r>
       <r>   17.4636    0.0000 </r>
      </set>
      <set comment="kpoint 3">
       <r>  -12.2934    1.0000 </r>
       <r>  -12.2933    1.0000 </r>
       <r>  -12.2854    1.0000 </r>
       <r>  -12.2852    1.0000 </r>
       <r>  -12.2826    1.0000 </r>
       <r>  -12.2810    1.0000 </r>
       <r>  -12.2798    1.0000 </r>
       <r>  -12.2787    1.0000 </r>
       <r>  -12.2753    1.0000 </r>
       <r>  -12.2695    1.0000 </r>
       <r>  -12.2681    1.0000 </r>
       <r>  -12.2672    1.0000 </r>
       <r>  -12.2663    1.0000 </r>
       <r>  -12.2651    1.0000 </r>
       <r>  -12.2641    1.0000 </r>
       <r>  -12.2638    1.0000 </r>
       <r>  -12.2635    1.0000 </r>
       <r>  -12.2627    1.0000 </r>
       <r>  -12.2611    1.0000 </r>
       <r>  -12.2511    1.0000 </r>
       <r>  -12.2503    1.0000 </r>
       <r>  -12.2503    1.0000 </r>
       <r>  -12.2493    1.0000 </r>
       <r>  -12.2465    1.0000 </r>
       <r>  -12.2459    1.0000 </r>
       <r>  -12.2452    1.0000 </r>
       <r>  -12.2418    1.0000 </r>
       <r>  -12.2412    1.0000 </r>
       <r>  -12.2400    1.0000 </r>
       <r>  -12.2359    1.0000 </r>
       <r>  -12.2349    1.0000 </r>
       <r>  -12.2347    1.0000 </r>
       <r>  -12.2329    1.0000 </r>
       <r>  -12.2311    1.0000 </r>
       <r>  -12.2299    1.0000 </r>
       <r>  -12.2298    1.0000 </r>
       <r>  -12.2288    1.0000 </r>
       <r>  -12.2264    1.0000 </r>
       <r>  -12.2254    1.0000 </r>
       <r>  -12.2244    1.0000 </r>
       <r>  -12.2235    1.0000 </r>
       <r>  -12.2212    1.0000 </r>
       <r>  -12.2193    1.0000 </r>
       <r>  -12.2192    1.0000 </r>
       <r>  -12.2191    1.0000 </r>
       <r>  -12.2188    1.0000 </r>
       <r>  -12.2172    1.0000 </r>
       <r>  -12.2152    1.0000 </r>
       <r>  -12.2139    1.0000 </r>
       <r>  -12.2135    1.0000 </r>
       <r>  -12.2096    1.0000 </r>
       <r>  -12.2075    1.0000 </r>
       <r>  -12.2073    1.0000 </r>
       <r>  -12.2062    1.0000 </r>
       <r>  -12.1978    1.0000 </r>
       <r>  -12.1976    1.0000 </r>
       <r>  -12.1971    1.0000 </r>
       <r>  -12.1970    1.0000 </r>
       <r>  -12.1919    1.0000 </r>
       <r>  -12.1918    1.0000 </r>
       <r>  -12.1341    1.0000 </r>
       <r>  -12.1312    1.0000 </r>
       <r>  -12.1289    1.0000 </r>
       <r>  -12.1266    1.0000 </r>
       <r>  -12.1260    1.0000 </r>
       <r>  -12.1213    1.0000 </r>
       <r>  -12.1210    1.0000 </r>
       <r>  -12.1163    1.0000 </r>
       <r>  -12.1158    1.0000 </r>
       <r>  -12.1115    1.0000 </r>
       <r>  -12.1113    1.0000 </r>
       <r>  -12.1071    1.0000 </r>
       <r>  -12.1045    1.0000 </r>
       <r>  -12.1012    1.0000 </r>
       <r>  -12.0964    1.0000 </r>
       <r>  -12.0937    1.0000 </r>
       <r>  -12.0870    1.0000 </r>
       <r>  -12.0840    1.0000 </r>
       <r>  -12.0829    1.0000 </r>
       <r>  -12.0801    1.0000 </r>
       <r>  -12.0772    1.0000 </r>
       <r>  -12.0743    1.0000 </r>
       <r>  -12.0573    1.0000 </r>
       <r>  -12.0529    1.0000 </r>
       <r>  -12.0436    1.0000 </r>
       <r>  -12.0375    1.0000 </r>
       <r>  -12.0285    1.0000 </r>
       <r>  -12.0206    1.0000 </r>
       <r>  -12.0158    1.0000 </r>
       <r>  -12.0063    1.0000 </r>
       <r>  -12.0059    1.0000 </r>
       <r>  -11.9962    1.0000 </r>
       <r>  -11.9949    1.0000 </r>
       <r>  -11.9900    1.0000 </r>
       <r>  -11.9839    1.0000 </r>
       <r>  -11.9768    1.0000 </r>
       <r>  -11.9747    1.0000 </r>
       <r>  -11.9746    1.0000 </r>
       <r>  -11.9633    1.0000 </r>
       <r>  -11.9632    1.0000 </r>
       <r>   -6.8890    1.0000 </r>
       <r>   -6.8524    1.0000 </r>
       <r>   -6.7993    1.0000 </r>
       <r>   -6.7309    1.0000 </r>
       <r>   -6.6393    1.0000 </r>
       <r>   -6.5204    1.0000 </r>
       <r>   -6.3747    1.0000 </r>
       <r>   -6.2032    1.0000 </r>
       <r>   -6.0121    1.0000 </r>
       <r>   -5.7783    1.0000 </r>
       <r>   -5.5432    1.0000 </r>
       <r>   -5.2570    1.0000 </r>
       <r>   -4.9768    1.0000 </r>
       <r>   -4.6822    1.0000 </r>
       <r>   -4.3869    1.0000 </r>
       <r>   -4.0995    1.0000 </r>
       <r>   -3.8312    1.0000 </r>
       <r>   -3.6006    1.0000 </r>
       <r>   -3.4125    1.0000 </r>
       <r>   -3.2818    1.0000 </r>
       <r>    0.7590    1.0000 </r>
       <r>    0.9590    1.0000 </r>
       <r>    1.2660    1.0000 </r>
       <r>    1.6566    1.0000 </r>
       <r>    2.1151    1.0000 </r>
       <r>    2.6304    1.0000 </r>
       <r>    3.1922    1.0000 </r>
       <r>    3.7933    1.0000 </r>
       <r>    4.4246    1.0000 </r>
       <r>    5.0919   -0.0031 </r>
       <r>    5.7577   -0.0000 </r>
       <r>    6.4435   -0.0000 </r>
       <r>    7.0892   -0.0000 </r>
       <r>    7.6956    0.0000 </r>
       <r>    8.1784    0.0000 </r>
       <r>    8.5634    0.0000 </r>
       <r>    8.6947    0.0000 </r>
       <r>    9.1898    0.0000 </r>
       <r>    9.2026    0.0000 </r>
       <r>    9.2381    0.0000 </r>
       <r>    9.2808    0.0000 </r>
       <r>    9.3183    0.0000 </r>
       <r>    9.3537    0.0000 </r>
       <r>    9.4267    0.0000 </r>
       <r>    9.5310    0.0000 </r>
       <r>    9.6490    0.0000 </r>
       <r>    9.7913    0.0000 </r>
       <r>    9.9081    0.0000 </r>
       <r>    9.9710    0.0000 </r>
       <r>    9.9908    0.0000 </r>
       <r>   10.0248    0.0000 </r>
       <r>   10.0746    0.0000 </r>
       <r>   10.1142    0.0000 </r>
       <r>   10.1383    0.0000 </r>
       <r>   10.1620    0.0000 </r>
       <r>   10.2207    0.0000 </r>
       <r>   10.3210    0.0000 </r>
       <r>   10.3253    0.0000 </r>
       <r>   10.4503    0.0000 </r>
       <r>   10.4965    0.0000 </r>
       <r>   10.5935    0.0000 </r>
       <r>   10.6232    0.0000 </r>
       <r>   10.7488    0.0000 </r>
       <r>   10.7601    0.0000 </r>
       <r>   10.9036    0.0000 </r>
       <r>   10.9302    0.0000 </r>
       <r>   10.9926    0.0000 </r>
       <r>   11.1023    0.0000 </r>
       <r>   11.1089    0.0000 </r>
       <r>   11.2631    0.0000 </r>
       <r>   11.3038    0.0000 </r>
       <r>   11.3153    0.0000 </r>
       <r>   11.3666    0.0000 </r>
       <r>   11.5018    0.0000 </r>
       <r>   11.5100    0.0000 </r>
       <r>   11.5915    0.0000 </r>
       <r>   11.7030    0.0000 </r>
       <r>   11.8007    0.0000 </r>
       <r>   11.8838    0.0000 </r>
       <r>   12.0467    0.0000 </r>
       <r>   12.0550    0.0000 </r>
       <r>   12.1874    0.0000 </r>
       <r>   12.2980    0.0000 </r>
       <r>   12.3800    0.0000 </r>
       <r>   12.3801    0.0000 </r>
       <r>   12.4321    0.0000 </r>
       <r>   13.3905    0.0000 </r>
       <r>   13.4244    0.0000 </r>
       <r>   13.4517    0.0000 </r>
       <r>   13.4867    0.0000 </r>
       <r>   13.5608    0.0000 </r>
       <r>   13.6515    0.0000 </r>
       <r>   13.7664    0.0000 </r>
       <r>   13.8933    0.0000 </r>
       <r>   14.0193    0.0000 </r>
       <r>   14.0324    0.0000 </r>
       <r>   14.0879    0.0000 </r>
       <r>   14.1508    0.0000 </r>
       <r>   14.2008    0.0000 </r>
       <r>   14.2586    0.0000 </r>
       <r>   14.2950    0.0000 </r>
       <r>   14.3521    0.0000 </r>
       <r>   14.4287    0.0000 </r>
       <r>   14.4968    0.0000 </r>
       <r>   14.5638    0.0000 </r>
       <r>   14.6028    0.0000 </r>
       <r>   14.6210    0.0000 </r>
       <r>   15.0385    0.0000 </r>
       <r>   15.0801    0.0000 </r>
       <r>   15.1225    0.0000 </r>
       <r>   15.1873    0.0000 </r>
       <r>   15.2739    0.0000 </r>
       <r>   15.3792    0.0000 </r>
       <r>   15.4980    0.0000 </r>
       <r>   15.6231    0.0000 </r>
       <r>   15.7344    0.0000 </r>
       <r>   15.7865    0.0000 </r>
       <r>   15.8123    0.0000 </r>
       <r>   15.8486    0.0000 </r>
       <r>   16.0376    0.0000 </r>
       <r>   16.2863    0.0000 </r>
       <r>   16.3773    0.0000 </r>
       <r>   16.4107    0.0000 </r>
       <r>   16.4344    0.0000 </r>
       <r>   16.4627    0.0000 </r>
       <r>   16.5323    0.0000 </r>
       <r>   16.5370    0.0000 </r>
       <r>   16.6216    0.0000 </r>
       <r>   16.7304    0.0000 </r>
       <r>   16.7341    0.0000 </r>
       <r>   16.8427    0.0000 </r>
       <r>   16.8691    0.0000 </r>
       <r>   16.9331    0.0000 </r>
       <r>   17.0123    0.0000 </r>
       <r>   17.0254    0.0000 </r>
       <r>   17.0360    0.0000 </r>
       <r>   17.0746    0.0000 </r>
       <r>   17.1787    0.0000 </r>
       <r>   17.1996    0.0000 </r>
       <r>   17.2289    0.0000 </r>
       <r>   17.3060    0.0000 </r>
       <r>   17.3606    0.0000 </r>
       <r>   17.3963    0.0000 </r>
       <r>   17.4363    0.0000 </r>
       <r>   17.4526    0.0000 </r>
       <r>   17.5361    0.0000 </r>
       <r>   17.5583    0.0000 </r>
       <r>   17.5674    0.0000 </r>
       <r>   17.6220    0.0000 </r>
       <r>   17.6297    0.0000 </r>
      </set>
      <set comment="kpoint 4">
       <r>  -12.2973    1.0000 </r>
       <r>  -12.2971    1.0000 </r>
       <r>  -12.2929    1.0000 </r>
       <r>  -12.2921    1.0000 </r>
       <r>  -12.2909    1.0000 </r>
       <r>  -12.2883    1.0000 </r>
       <r>  -12.2853    1.0000 </r>
       <r>  -12.2817    1.0000 </r>
       <r>  -12.2743    1.0000 </r>
       <r>  -12.2686    1.0000 </r>
       <r>  -12.2682    1.0000 </r>
       <r>  -12.2663    1.0000 </r>
       <r>  -12.2656    1.0000 </r>
       <r>  -12.2647    1.0000 </r>
       <r>  -12.2636    1.0000 </r>
       <r>  -12.2623    1.0000 </r>
       <r>  -12.2614    1.0000 </r>
       <r>  -12.2611    1.0000 </r>
       <r>  -12.2602    1.0000 </r>
       <r>  -12.2462    1.0000 </r>
       <r>  -12.2453    1.0000 </r>
       <r>  -12.2424    1.0000 </r>
       <r>  -12.2400    1.0000 </r>
       <r>  -12.2388    1.0000 </r>
       <r>  -12.2379    1.0000 </r>
       <r>  -12.2354    1.0000 </r>
       <r>  -12.2342    1.0000 </r>
       <r>  -12.2338    1.0000 </r>
       <r>  -12.2312    1.0000 </r>
       <r>  -12.2285    1.0000 </r>
       <r>  -12.2279    1.0000 </r>
       <r>  -12.2257    1.0000 </r>
       <r>  -12.2230    1.0000 </r>
       <r>  -12.2214    1.0000 </r>
       <r>  -12.2212    1.0000 </r>
       <r>  -12.2200    1.0000 </r>
       <r>  -12.2177    1.0000 </r>
       <r>  -12.2167    1.0000 </r>
       <r>  -12.2147    1.0000 </r>
       <r>  -12.2135    1.0000 </r>
       <r>  -12.2127    1.0000 </r>
       <r>  -12.2127    1.0000 </r>
       <r>  -12.2101    1.0000 </r>
       <r>  -12.2081    1.0000 </r>
       <r>  -12.2068    1.0000 </r>
       <r>  -12.2058    1.0000 </r>
       <r>  -12.2035    1.0000 </r>
       <r>  -12.2031    1.0000 </r>
       <r>  -12.2024    1.0000 </r>
       <r>  -12.1985    1.0000 </r>
       <r>  -12.1984    1.0000 </r>
       <r>  -12.1971    1.0000 </r>
       <r>  -12.1922    1.0000 </r>
       <r>  -12.1875    1.0000 </r>
       <r>  -12.1848    1.0000 </r>
       <r>  -12.1846    1.0000 </r>
       <r>  -12.1823    1.0000 </r>
       <r>  -12.1819    1.0000 </r>
       <r>  -12.1740    1.0000 </r>
       <r>  -12.1739    1.0000 </r>
       <r>  -12.1474    1.0000 </r>
       <r>  -12.1427    1.0000 </r>
       <r>  -12.1361    1.0000 </r>
       <r>  -12.1360    1.0000 </r>
       <r>  -12.1315    1.0000 </r>
       <r>  -12.1285    1.0000 </r>
       <r>  -12.1250    1.0000 </r>
       <r>  -12.1217    1.0000 </r>
       <r>  -12.1176    1.0000 </r>
       <r>  -12.1146    1.0000 </r>
       <r>  -12.1113    1.0000 </r>
       <r>  -12.1063    1.0000 </r>
       <r>  -12.1052    1.0000 </r>
       <r>  -12.0987    1.0000 </r>
       <r>  -12.0978    1.0000 </r>
       <r>  -12.0915    1.0000 </r>
       <r>  -12.0897    1.0000 </r>
       <r>  -12.0857    1.0000 </r>
       <r>  -12.0814    1.0000 </r>
       <r>  -12.0782    1.0000 </r>
       <r>  -12.0780    1.0000 </r>
       <r>  -12.0729    1.0000 </r>
       <r>  -12.0604    1.0000 </r>
       <r>  -12.0523    1.0000 </r>
       <r>  -12.0488    1.0000 </r>
       <r>  -12.0369    1.0000 </r>
       <r>  -12.0360    1.0000 </r>
       <r>  -12.0253    1.0000 </r>
       <r>  -12.0199    1.0000 </r>
       <r>  -12.0172    1.0000 </r>
       <r>  -12.0091    1.0000 </r>
       <r>  -12.0054    1.0000 </r>
       <r>  -12.0041    1.0000 </r>
       <r>  -11.9938    1.0000 </r>
       <r>  -11.9860    1.0000 </r>
       <r>  -11.9859    1.0000 </r>
       <r>  -11.9827    1.0000 </r>
       <r>  -11.9756    1.0000 </r>
       <r>  -11.9621    1.0000 </r>
       <r>  -11.9620    1.0000 </r>
       <r>   -6.7503    1.0000 </r>
       <r>   -6.7137    1.0000 </r>
       <r>   -6.6604    1.0000 </r>
       <r>   -6.5920    1.0000 </r>
       <r>   -6.5005    1.0000 </r>
       <r>   -6.3816    1.0000 </r>
       <r>   -6.2362    1.0000 </r>
       <r>   -6.0652    1.0000 </r>
       <r>   -5.8748    1.0000 </r>
       <r>   -5.6421    1.0000 </r>
       <r>   -5.4082    1.0000 </r>
       <r>   -5.1239    1.0000 </r>
       <r>   -4.8458    1.0000 </r>
       <r>   -4.5539    1.0000 </r>
       <r>   -4.2619    1.0000 </r>
       <r>   -3.9784    1.0000 </r>
       <r>   -3.7145    1.0000 </r>
       <r>   -3.4883    1.0000 </r>
       <r>   -3.3044    1.0000 </r>
       <r>   -3.1770    1.0000 </r>
       <r>    0.9194    1.0000 </r>
       <r>    1.1153    1.0000 </r>
       <r>    1.4164    1.0000 </r>
       <r>    1.8001    1.0000 </r>
       <r>    2.2508    1.0000 </r>
       <r>    2.7574    1.0000 </r>
       <r>    3.3094    1.0000 </r>
       <r>    3.8991    1.0000 </r>
       <r>    4.5170    1.0000 </r>
       <r>    5.1671   -0.0001 </r>
       <r>    5.8132   -0.0000 </r>
       <r>    6.4720   -0.0000 </r>
       <r>    7.0883   -0.0000 </r>
       <r>    7.6631    0.0000 </r>
       <r>    8.1410    0.0000 </r>
       <r>    8.1517    0.0000 </r>
       <r>    8.1886    0.0000 </r>
       <r>    8.2416    0.0000 </r>
       <r>    8.3134    0.0000 </r>
       <r>    8.3946    0.0000 </r>
       <r>    8.4896    0.0000 </r>
       <r>    8.5374    0.0000 </r>
       <r>    8.6741    0.0000 </r>
       <r>    8.7344    0.0000 </r>
       <r>    8.8781    0.0000 </r>
       <r>    8.8945    0.0000 </r>
       <r>    9.1133    0.0000 </r>
       <r>    9.2367    0.0000 </r>
       <r>    9.3306    0.0000 </r>
       <r>    9.3914    0.0000 </r>
       <r>    9.5623    0.0000 </r>
       <r>    9.5990    0.0000 </r>
       <r>    9.6123    0.0000 </r>
       <r>    9.6532    0.0000 </r>
       <r>    9.7229    0.0000 </r>
       <r>    9.7751    0.0000 </r>
       <r>    9.8135    0.0000 </r>
       <r>    9.8679    0.0000 </r>
       <r>    9.9284    0.0000 </r>
       <r>   10.0383    0.0000 </r>
       <r>   10.0662    0.0000 </r>
       <r>   10.1109    0.0000 </r>
       <r>   10.2250    0.0000 </r>
       <r>   10.2618    0.0000 </r>
       <r>   10.3985    0.0000 </r>
       <r>   10.4361    0.0000 </r>
       <r>   10.5139    0.0000 </r>
       <r>   10.5469    0.0000 </r>
       <r>   10.6029    0.0000 </r>
       <r>   10.7321    0.0000 </r>
       <r>   10.8061    0.0000 </r>
       <r>   10.8744    0.0000 </r>
       <r>   11.0428    0.0000 </r>
       <r>   11.1102    0.0000 </r>
       <r>   11.2688    0.0000 </r>
       <r>   11.3353    0.0000 </r>
       <r>   11.4965    0.0000 </r>
       <r>   11.7037    0.0000 </r>
       <r>   11.7138    0.0000 </r>
       <r>   11.9137    0.0000 </r>
       <r>   11.9955    0.0000 </r>
       <r>   12.0897    0.0000 </r>
       <r>   12.2315    0.0000 </r>
       <r>   12.3395    0.0000 </r>
       <r>   12.4048    0.0000 </r>
       <r>   12.4101    0.0000 </r>
       <r>   12.9175    0.0000 </r>
       <r>   12.9564    0.0000 </r>
       <r>   13.0146    0.0000 </r>
       <r>   13.0952    0.0000 </r>
       <r>   13.1906    0.0000 </r>
       <r>   13.3214    0.0000 </r>
       <r>   13.4068    0.0000 </r>
       <r>   13.5048    0.0000 </r>
       <r>   13.6177    0.0000 </r>
       <r>   13.6465    0.0000 </r>
       <r>   13.7544    0.0000 </r>
       <r>   13.7766    0.0000 </r>
       <r>   13.8648    0.0000 </r>
       <r>   14.1140    0.0000 </r>
       <r>   14.1637    0.0000 </r>
       <r>   14.2370    0.0000 </r>
       <r>   14.3818    0.0000 </r>
       <r>   14.5601    0.0000 </r>
       <r>   14.7776    0.0000 </r>
       <r>   14.9375    0.0000 </r>
       <r>   15.0179    0.0000 </r>
       <r>   15.0851    0.0000 </r>
       <r>   15.1604    0.0000 </r>
       <r>   15.2461    0.0000 </r>
       <r>   15.4836    0.0000 </r>
       <r>   15.4987    0.0000 </r>
       <r>   15.5490    0.0000 </r>
       <r>   15.6161    0.0000 </r>
       <r>   15.6919    0.0000 </r>
       <r>   15.7790    0.0000 </r>
       <r>   15.8745    0.0000 </r>
       <r>   15.9648    0.0000 </r>
       <r>   16.0760    0.0000 </r>
       <r>   16.2004    0.0000 </r>
       <r>   16.3122    0.0000 </r>
       <r>   16.4111    0.0000 </r>
       <r>   16.4978    0.0000 </r>
       <r>   16.5615    0.0000 </r>
       <r>   16.6955    0.0000 </r>
       <r>   16.7153    0.0000 </r>
       <r>   16.7453    0.0000 </r>
       <r>   16.7914    0.0000 </r>
       <r>   16.8527    0.0000 </r>
       <r>   16.8953    0.0000 </r>
       <r>   16.9321    0.0000 </r>
       <r>   16.9698    0.0000 </r>
       <r>   17.0337    0.0000 </r>
       <r>   17.0846    0.0000 </r>
       <r>   17.1575    0.0000 </r>
       <r>   17.2684    0.0000 </r>
       <r>   17.3030    0.0000 </r>
       <r>   17.4049    0.0000 </r>
       <r>   17.4675    0.0000 </r>
       <r>   17.5139    0.0000 </r>
       <r>   17.6087    0.0000 </r>
       <r>   17.6220    0.0000 </r>
       <r>   17.6460    0.0000 </r>
       <r>   17.6922    0.0000 </r>
       <r>   17.7426    0.0000 </r>
       <r>   17.7942    0.0000 </r>
       <r>   17.8696    0.0000 </r>
       <r>   17.8982    0.0000 </r>
       <r>   17.9133    0.0000 </r>
       <r>   17.9488    0.0000 </r>
      </set>
      <set comment="kpoint 5">
       <r>  -12.3116    1.0000 </r>
       <r>  -12.3111    1.0000 </r>
       <r>  -12.3088    1.0000 </r>
       <r>  -12.3059    1.0000 </r>
       <r>  -12.3033    1.0000 </r>
       <r>  -12.2992    1.0000 </r>
       <r>  -12.2940    1.0000 </r>
       <r>  -12.2885    1.0000 </r>
       <r>  -12.2799    1.0000 </r>
       <r>  -12.2757    1.0000 </r>
       <r>  -12.2744    1.0000 </r>
       <r>  -12.2675    1.0000 </r>
       <r>  -12.2654    1.0000 </r>
       <r>  -12.2643    1.0000 </r>
       <r>  -12.2633    1.0000 </r>
       <r>  -12.2604    1.0000 </r>
       <r>  -12.2565    1.0000 </r>
       <r>  -12.2527    1.0000 </r>
       <r>  -12.2497    1.0000 </r>
       <r>  -12.2379    1.0000 </r>
       <r>  -12.2365    1.0000 </r>
       <r>  -12.2334    1.0000 </r>
       <r>  -12.2315    1.0000 </r>
       <r>  -12.2296    1.0000 </r>
       <r>  -12.2288    1.0000 </r>
       <r>  -12.2263    1.0000 </r>
       <r>  -12.2259    1.0000 </r>
       <r>  -12.2236    1.0000 </r>
       <r>  -12.2218    1.0000 </r>
       <r>  -12.2207    1.0000 </r>
       <r>  -12.2197    1.0000 </r>
       <r>  -12.2195    1.0000 </r>
       <r>  -12.2180    1.0000 </r>
       <r>  -12.2173    1.0000 </r>
       <r>  -12.2159    1.0000 </r>
       <r>  -12.2132    1.0000 </r>
       <r>  -12.2114    1.0000 </r>
       <r>  -12.2073    1.0000 </r>
       <r>  -12.2051    1.0000 </r>
       <r>  -12.2036    1.0000 </r>
       <r>  -12.2002    1.0000 </r>
       <r>  -12.1952    1.0000 </r>
       <r>  -12.1944    1.0000 </r>
       <r>  -12.1913    1.0000 </r>
       <r>  -12.1900    1.0000 </r>
       <r>  -12.1891    1.0000 </r>
       <r>  -12.1864    1.0000 </r>
       <r>  -12.1856    1.0000 </r>
       <r>  -12.1839    1.0000 </r>
       <r>  -12.1809    1.0000 </r>
       <r>  -12.1775    1.0000 </r>
       <r>  -12.1750    1.0000 </r>
       <r>  -12.1747    1.0000 </r>
       <r>  -12.1722    1.0000 </r>
       <r>  -12.1702    1.0000 </r>
       <r>  -12.1657    1.0000 </r>
       <r>  -12.1617    1.0000 </r>
       <r>  -12.1603    1.0000 </r>
       <r>  -12.1576    1.0000 </r>
       <r>  -12.1510    1.0000 </r>
       <r>  -12.1509    1.0000 </r>
       <r>  -12.1493    1.0000 </r>
       <r>  -12.1408    1.0000 </r>
       <r>  -12.1402    1.0000 </r>
       <r>  -12.1334    1.0000 </r>
       <r>  -12.1323    1.0000 </r>
       <r>  -12.1252    1.0000 </r>
       <r>  -12.1242    1.0000 </r>
       <r>  -12.1164    1.0000 </r>
       <r>  -12.1158    1.0000 </r>
       <r>  -12.1085    1.0000 </r>
       <r>  -12.1068    1.0000 </r>
       <r>  -12.1013    1.0000 </r>
       <r>  -12.0978    1.0000 </r>
       <r>  -12.0944    1.0000 </r>
       <r>  -12.0897    1.0000 </r>
       <r>  -12.0876    1.0000 </r>
       <r>  -12.0842    1.0000 </r>
       <r>  -12.0778    1.0000 </r>
       <r>  -12.0770    1.0000 </r>
       <r>  -12.0736    1.0000 </r>
       <r>  -12.0699    1.0000 </r>
       <r>  -12.0626    1.0000 </r>
       <r>  -12.0537    1.0000 </r>
       <r>  -12.0516    1.0000 </r>
       <r>  -12.0439    1.0000 </r>
       <r>  -12.0362    1.0000 </r>
       <r>  -12.0361    1.0000 </r>
       <r>  -12.0306    1.0000 </r>
       <r>  -12.0247    1.0000 </r>
       <r>  -12.0213    1.0000 </r>
       <r>  -12.0191    1.0000 </r>
       <r>  -12.0044    1.0000 </r>
       <r>  -11.9985    1.0000 </r>
       <r>  -11.9984    1.0000 </r>
       <r>  -11.9926    1.0000 </r>
       <r>  -11.9812    1.0000 </r>
       <r>  -11.9739    1.0000 </r>
       <r>  -11.9607    1.0000 </r>
       <r>  -11.9605    1.0000 </r>
       <r>   -6.5560    1.0000 </r>
       <r>   -6.5194    1.0000 </r>
       <r>   -6.4662    1.0000 </r>
       <r>   -6.3977    1.0000 </r>
       <r>   -6.3063    1.0000 </r>
       <r>   -6.1877    1.0000 </r>
       <r>   -6.0428    1.0000 </r>
       <r>   -5.8725    1.0000 </r>
       <r>   -5.6832    1.0000 </r>
       <r>   -5.4522    1.0000 </r>
       <r>   -5.2202    1.0000 </r>
       <r>   -4.9386    1.0000 </r>
       <r>   -4.6637    1.0000 </r>
       <r>   -4.3758    1.0000 </r>
       <r>   -4.0886    1.0000 </r>
       <r>   -3.8107    1.0000 </r>
       <r>   -3.5529    1.0000 </r>
       <r>   -3.3332    1.0000 </r>
       <r>   -3.1553    1.0000 </r>
       <r>   -3.0324    1.0000 </r>
       <r>    1.1405    1.0000 </r>
       <r>    1.3302    1.0000 </r>
       <r>    1.6225    1.0000 </r>
       <r>    1.9956    1.0000 </r>
       <r>    2.4340    1.0000 </r>
       <r>    2.9262    1.0000 </r>
       <r>    3.4610    1.0000 </r>
       <r>    4.0292    1.0000 </r>
       <r>    4.6193    1.0014 </r>
       <r>    5.2283   -0.0000 </r>
       <r>    5.8168   -0.0000 </r>
       <r>    6.3778   -0.0000 </r>
       <r>    6.8558   -0.0000 </r>
       <r>    7.0786   -0.0000 </r>
       <r>    7.1240   -0.0000 </r>
       <r>    7.1826   -0.0000 </r>
       <r>    7.2649   -0.0000 </r>
       <r>    7.2860   -0.0000 </r>
       <r>    7.4255   -0.0000 </r>
       <r>    7.5550   -0.0000 </r>
       <r>    7.6463    0.0000 </r>
       <r>    7.7985    0.0000 </r>
       <r>    7.9330    0.0000 </r>
       <r>    8.0808    0.0000 </r>
       <r>    8.2343    0.0000 </r>
       <r>    8.3707    0.0000 </r>
       <r>    8.5721    0.0000 </r>
       <r>    8.6354    0.0000 </r>
       <r>    8.8321    0.0000 </r>
       <r>    8.8837    0.0000 </r>
       <r>    9.1032    0.0000 </r>
       <r>    9.1122    0.0000 </r>
       <r>    9.1510    0.0000 </r>
[...]
       <r>    8.0795    0.0000 </r>
       <r>    8.1396    0.0000 </r>
       <r>    8.1964    0.0000 </r>
       <r>    8.3193    0.0000 </r>
       <r>    8.3353    0.0000 </r>
       <r>    8.4709    0.0000 </r>
       <r>    8.6862    0.0000 </r>
       <r>   11.2765    0.0000 </r>
       <r>   11.2775    0.0000 </r>
       <r>   11.7826    0.0000 </r>
       <r>   11.7836    0.0000 </r>
       <r>   11.9272    0.0000 </r>
       <r>   12.0233    0.0000 </r>
       <r>   12.1047    0.0000 </r>
       <r>   12.1369    0.0000 </r>
       <r>   12.3658    0.0000 </r>
       <r>   12.4776    0.0000 </r>
       <r>   12.4815    0.0000 </r>
       <r>   12.7662    0.0000 </r>
       <r>   12.8750    0.0000 </r>
       <r>   12.9196    0.0000 </r>
       <r>   13.1860    0.0000 </r>
       <r>   13.2733    0.0000 </r>
       <r>   13.3935    0.0000 </r>
       <r>   13.5590    0.0000 </r>
       <r>   13.6226    0.0000 </r>
       <r>   13.6740    0.0000 </r>
       <r>   13.8283    0.0000 </r>
       <r>   14.0033    0.0000 </r>
       <r>   14.0141    0.0000 </r>
       <r>   14.0523    0.0000 </r>
       <r>   14.1519    0.0000 </r>
       <r>   14.2746    0.0000 </r>
       <r>   14.2850    0.0000 </r>
       <r>   14.5586    0.0000 </r>
       <r>   14.6186    0.0000 </r>
       <r>   14.7409    0.0000 </r>
       <r>   15.0301    0.0000 </r>
       <r>   15.3061    0.0000 </r>
       <r>   15.3890    0.0000 </r>
       <r>   15.6782    0.0000 </r>
       <r>   16.0836    0.0000 </r>
       <r>   16.1639    0.0000 </r>
       <r>   16.3362    0.0000 </r>
       <r>   16.4116    0.0000 </r>
       <r>   16.4227    0.0000 </r>
       <r>   16.7919    0.0000 </r>
       <r>   16.9015    0.0000 </r>
       <r>   16.9083    0.0000 </r>
       <r>   17.0084    0.0000 </r>
       <r>   17.2366    0.0000 </r>
       <r>   17.2629    0.0000 </r>
       <r>   17.7460    0.0000 </r>
       <r>   17.7777    0.0000 </r>
       <r>   17.8004    0.0000 </r>
       <r>   17.8439    0.0000 </r>
       <r>   18.2321    0.0000 </r>
       <r>   18.2349    0.0000 </r>
       <r>   18.2881    0.0000 </r>
       <r>   18.2882    0.0000 </r>
       <r>   18.3146    0.0000 </r>
       <r>   18.3154    0.0000 </r>
       <r>   18.3595    0.0000 </r>
       <r>   18.3653    0.0000 </r>
       <r>   18.4417    0.0000 </r>
       <r>   18.4607    0.0000 </r>
       <r>   18.5295    0.0000 </r>
       <r>   18.5383    0.0000 </r>
       <r>   18.6239    0.0000 </r>
       <r>   18.6414    0.0000 </r>
       <r>   18.7519    0.0000 </r>
       <r>   18.7759    0.0000 </r>
       <r>   18.7762    0.0000 </r>
       <r>   18.7969    0.0000 </r>
       <r>   18.8644    0.0000 </r>
       <r>   18.8777    0.0000 </r>
       <r>   18.9296    0.0000 </r>
      </set>
     </set>
    </set>
   </array>
  </eigenvalues>
  <separator name="orbital magnetization" >
   <v name="MAGDIPOLOUT">      0.00000000      0.00000000      0.00000000</v>
  </separator>
  <dos>
   <i name="efermi">      4.86526645 </i>
   <total>
    <array>
     <dimension dim="1">gridpoints</dimension>
     <dimension dim="2">spin</dimension>
     <field>energy</field>
     <field>total</field>
     <field>integrated</field>
     <set>
      <set comment="spin 1">
       <r>   -14.0151     0.0000     0.0000 </r>
       <r>   -13.8987     0.0000     0.0000 </r>
       <r>   -13.7822     0.0000     0.0000 </r>
       <r>   -13.6658     0.0000     0.0000 </r>
       <r>   -13.5493     0.0000     0.0000 </r>
       <r>   -13.4329     0.0000     0.0000 </r>
       <r>   -13.3165    -0.0000    -0.0000 </r>
       <r>   -13.2000    -0.0000    -0.0000 </r>
       <r>   -13.0836    -0.0000    -0.0000 </r>
       <r>   -12.9672    -0.0000    -0.0000 </r>
       <r>   -12.8507    -0.0000    -0.0000 </r>
       <r>   -12.7343    -0.0003    -0.0000 </r>
       <r>   -12.6178    -0.1215    -0.0142 </r>
       <r>   -12.5014    -3.5266    -0.4248 </r>
       <r>   -12.3850    14.8287     1.3018 </r>
       <r>   -12.2685   297.5467    35.9476 </r>
       <r>   -12.1521   527.1125    97.3236 </r>
       <r>   -12.0356   474.2752   152.5473 </r>
       <r>   -11.9192   385.5134   197.4357 </r>
       <r>   -11.8028    28.0888   200.7064 </r>
       <r>   -11.6863    -5.9799   200.0101 </r>
       <r>   -11.5699    -0.0864   200.0000 </r>
       <r>   -11.4535    -0.0001   200.0000 </r>
       <r>   -11.3370    -0.0000   200.0000 </r>
       <r>   -11.2206    -0.0000   200.0000 </r>
       <r>   -11.1041     0.0000   200.0000 </r>
       <r>   -10.9877     0.0000   200.0000 </r>
       <r>   -10.8713     0.0000   200.0000 </r>
       <r>   -10.7548     0.0000   200.0000 </r>
       <r>   -10.6384     0.0000   200.0000 </r>
       <r>   -10.5220     0.0000   200.0000 </r>
       <r>   -10.4055     0.0000   200.0000 </r>
       <r>   -10.2891     0.0000   200.0000 </r>
       <r>   -10.1726     0.0000   200.0000 </r>
       <r>   -10.0562     0.0000   200.0000 </r>
       <r>    -9.9398     0.0000   200.0000 </r>
       <r>    -9.8233     0.0000   200.0000 </r>
       <r>    -9.7069     0.0000   200.0000 </r>
       <r>    -9.5904     0.0000   200.0000 </r>
       <r>    -9.4740     0.0000   200.0000 </r>
       <r>    -9.3576     0.0000   200.0000 </r>
       <r>    -9.2411     0.0000   200.0000 </r>
       <r>    -9.1247     0.0000   200.0000 </r>
       <r>    -9.0083     0.0000   200.0000 </r>
       <r>    -8.8918     0.0000   200.0000 </r>
       <r>    -8.7754     0.0000   200.0000 </r>
       <r>    -8.6589     0.0000   200.0000 </r>
       <r>    -8.5425     0.0000   200.0000 </r>
       <r>    -8.4261     0.0000   200.0000 </r>
       <r>    -8.3096     0.0000   200.0000 </r>
       <r>    -8.1932     0.0000   200.0000 </r>
       <r>    -8.0768     0.0000   200.0000 </r>
       <r>    -7.9603     0.0000   200.0000 </r>
       <r>    -7.8439    -0.0000   200.0000 </r>
       <r>    -7.7274    -0.0000   200.0000 </r>
       <r>    -7.6110    -0.0000   200.0000 </r>
       <r>    -7.4946    -0.0000   200.0000 </r>
       <r>    -7.3781    -0.0000   200.0000 </r>
       <r>    -7.2617    -0.0001   200.0000 </r>
       <r>    -7.1452    -0.0058   199.9993 </r>
       <r>    -7.0288    -0.0004   199.9993 </r>
       <r>    -6.9124     0.5249   200.0604 </r>
       <r>    -6.7959     1.3792   200.2210 </r>
       <r>    -6.6795     1.9103   200.4434 </r>
       <r>    -6.5631     2.3640   200.7187 </r>
       <r>    -6.4466     2.6273   201.0246 </r>
       <r>    -6.3302     2.9945   201.3733 </r>
       <r>    -6.2137     3.1967   201.7455 </r>
       <r>    -6.0973     3.6284   202.1680 </r>
       <r>    -5.9809     3.5156   202.5773 </r>
       <r>    -5.8644     4.1693   203.0628 </r>
       <r>    -5.7480     4.1214   203.5427 </r>
       <r>    -5.6316     4.1731   204.0286 </r>
       <r>    -5.5151     5.0522   204.6168 </r>
       <r>    -5.3987     4.4256   205.1322 </r>
       <r>    -5.2822     5.0880   205.7246 </r>
       <r>    -5.1658     5.3263   206.3448 </r>
       <r>    -5.0494     5.4423   206.9785 </r>
       <r>    -4.9329     5.3004   207.5956 </r>
       <r>    -4.8165     6.2584   208.3244 </r>
       <r>    -4.7000     6.1154   209.0364 </r>
       <r>    -4.5836     5.9850   209.7333 </r>
       <r>    -4.4672     6.6837   210.5115 </r>
       <r>    -4.3507     7.1941   211.3492 </r>
       <r>    -4.2343     7.0296   212.1677 </r>
       <r>    -4.1179     6.8552   212.9659 </r>
       <r>    -4.0014     8.5624   213.9629 </r>
       <r>    -3.8850     8.0063   214.8952 </r>
       <r>    -3.7685     8.5294   215.8883 </r>
       <r>    -3.6521     8.8173   216.9150 </r>
       <r>    -3.5357    10.4029   218.1263 </r>
       <r>    -3.4192    10.7207   219.3746 </r>
       <r>    -3.3028    11.5947   220.7246 </r>
       <r>    -3.1864    13.8322   222.3352 </r>
       <r>    -3.0699    13.6412   223.9236 </r>
       <r>    -2.9535    12.1195   225.3348 </r>
       <r>    -2.8370    12.8095   226.8263 </r>
       <r>    -2.7206    12.7839   228.3148 </r>
       <r>    -2.6042    11.5319   229.6576 </r>
       <r>    -2.4877    12.3960   231.1009 </r>
       <r>    -2.3713    11.9550   232.4930 </r>
       <r>    -2.2548    11.9817   233.8881 </r>
       <r>    -2.1384    12.5220   235.3461 </r>
       <r>    -2.0220    13.3915   236.9054 </r>
       <r>    -1.9055    15.5094   238.7113 </r>
       <r>    -1.7891    10.5504   239.9398 </r>
       <r>    -1.6727     0.6722   240.0180 </r>
       <r>    -1.5562    -0.1519   240.0003 </r>
       <r>    -1.4398    -0.0028   240.0000 </r>
       <r>    -1.3233    -0.0000   240.0000 </r>
       <r>    -1.2069    -0.0000   240.0000 </r>
       <r>    -1.0905    -0.0000   240.0000 </r>
       <r>    -0.9740     0.0000   240.0000 </r>
       <r>    -0.8576     0.0000   240.0000 </r>
       <r>    -0.7412     0.0000   240.0000 </r>
       <r>    -0.6247     0.0000   240.0000 </r>
       <r>    -0.5083     0.0000   240.0000 </r>
       <r>    -0.3918     0.0000   240.0000 </r>
       <r>    -0.2754    -0.0000   240.0000 </r>
       <r>    -0.1590    -0.0000   240.0000 </r>
       <r>    -0.0425    -0.0000   240.0000 </r>
       <r>     0.0739    -0.0000   240.0000 </r>
       <r>     0.1904    -0.0000   240.0000 </r>
       <r>     0.3068    -0.0000   240.0000 </r>
       <r>     0.4232    -0.0051   239.9994 </r>
       <r>     0.5397    -0.0115   239.9981 </r>
       <r>     0.6561     0.5099   240.0574 </r>
       <r>     0.7725     1.6058   240.2444 </r>
       <r>     0.8890     2.2018   240.5008 </r>
       <r>     1.0054     3.0706   240.8583 </r>
       <r>     1.1219     3.4498   241.2600 </r>
       <r>     1.2383     3.8657   241.7101 </r>
       <r>     1.3547     4.8699   242.2772 </r>
       <r>     1.4712     4.9255   242.8507 </r>
       <r>     1.5876     5.4913   243.4901 </r>
       <r>     1.7040     7.2562   244.3350 </r>
       <r>     1.8205     8.4500   245.3189 </r>
       <r>     1.9369     8.7866   246.3420 </r>
       <r>     2.0534     9.8322   247.4868 </r>
       <r>     2.1698    12.4394   248.9352 </r>
       <r>     2.2862    12.9150   250.4390 </r>
       <r>     2.4027    15.3896   252.2310 </r>
       <r>     2.5191    17.2067   254.2345 </r>
       <r>     2.6356    16.3154   256.1342 </r>
       <r>     2.7520    15.1583   257.8992 </r>
       <r>     2.8684    15.9968   259.7619 </r>
       <r>     2.9849    14.0612   261.3991 </r>
       <r>     3.1013    12.3503   262.8372 </r>
       <r>     3.2177    10.4954   264.0592 </r>
       <r>     3.3342     8.8259   265.0869 </r>
       <r>     3.4506     9.5563   266.1996 </r>
       <r>     3.5671     8.6616   267.2082 </r>
       <r>     3.6835     8.9229   268.2472 </r>
       <r>     3.7999     9.9958   269.4110 </r>
       <r>     3.9164    10.2273   270.6019 </r>
       <r>     4.0328     9.3109   271.6860 </r>
       <r>     4.1492     9.4372   272.7849 </r>
       <r>     4.2657    10.0405   273.9540 </r>
       <r>     4.3821    10.0005   275.1184 </r>
       <r>     4.4986    10.9482   276.3932 </r>
       <r>     4.6150     9.8062   277.5350 </r>
       <r>     4.7314     9.8514   278.6821 </r>
       <r>     4.8479     9.8933   279.8341 </r>
       <r>     4.9643     9.7003   280.9635 </r>
       <r>     5.0808    10.5080   282.1871 </r>
       <r>     5.1972    11.8975   283.5724 </r>
       <r>     5.3136    10.3908   284.7823 </r>
       <r>     5.4301     8.8727   285.8154 </r>
       <r>     5.5465    11.2882   287.1298 </r>
       <r>     5.6629    12.4107   288.5749 </r>
       <r>     5.7794    13.2891   290.1222 </r>
       <r>     5.8958    11.5418   291.4661 </r>
       <r>     6.0123    10.7141   292.7137 </r>
       <r>     6.1287    11.9990   294.1108 </r>
       <r>     6.2451    13.3666   295.6672 </r>
       <r>     6.3616    12.8645   297.1651 </r>
       <r>     6.4780    14.0583   298.8020 </r>
       <r>     6.5945    13.5796   300.3832 </r>
       <r>     6.7109    14.0881   302.0236 </r>
       <r>     6.8273    14.9016   303.7587 </r>
       <r>     6.9438    13.7730   305.3624 </r>
       <r>     7.0602    16.2715   307.2570 </r>
       <r>     7.1766    18.0053   309.3535 </r>
       <r>     7.2931    16.3387   311.2560 </r>
       <r>     7.4095    14.4467   312.9381 </r>
       <r>     7.5260    13.4554   314.5049 </r>
       <r>     7.6424    15.1631   316.2704 </r>
       <r>     7.7588    16.6869   318.2134 </r>
       <r>     7.8753    13.4065   319.7744 </r>
       <r>     7.9917    15.5739   321.5878 </r>
       <r>     8.1081    13.8154   323.1965 </r>
       <r>     8.2246    14.1134   324.8398 </r>
       <r>     8.3410    14.8570   326.5697 </r>
       <r>     8.4575    12.7739   328.0571 </r>
       <r>     8.5739    13.7412   329.6571 </r>
       <r>     8.6903    14.2130   331.3120 </r>
       <r>     8.8068    13.1816   332.8469 </r>
       <r>     8.9232    14.7267   334.5616 </r>
       <r>     9.0397    12.7097   336.0415 </r>
       <r>     9.1561    12.4163   337.4873 </r>
       <r>     9.2725    13.1292   339.0160 </r>
       <r>     9.3890    13.8200   340.6252 </r>
       <r>     9.5054    12.6924   342.1030 </r>
       <r>     9.6218    12.0195   343.5026 </r>
       <r>     9.7383    12.8060   344.9937 </r>
       <r>     9.8547    12.2005   346.4143 </r>
       <r>     9.9712    12.7044   347.8936 </r>
       <r>    10.0876    11.9656   349.2868 </r>
       <r>    10.2040    12.6187   350.7561 </r>
       <r>    10.3205    10.7052   352.0026 </r>
       <r>    10.4369    12.4580   353.4532 </r>
       <r>    10.5533    12.1319   354.8658 </r>
       <r>    10.6698    12.1015   356.2749 </r>
       <r>    10.7862    12.8706   357.7735 </r>
       <r>    10.9027    12.6525   359.2467 </r>
       <r>    11.0191    11.6460   360.6028 </r>
       <r>    11.1355    11.0269   361.8867 </r>
       <r>    11.2520    12.1557   363.3021 </r>
       <r>    11.3684    12.1223   364.7136 </r>
       <r>    11.4849    11.1460   366.0114 </r>
       <r>    11.6013    13.2602   367.5554 </r>
       <r>    11.7177    13.1354   369.0849 </r>
       <r>    11.8342    13.0209   370.6010 </r>
       <r>    11.9506    14.5934   372.3002 </r>
       <r>    12.0670    15.6152   374.1184 </r>
       <r>    12.1835    16.5567   376.0463 </r>
       <r>    12.2999    16.4910   377.9664 </r>
       <r>    12.4164    14.7896   379.6885 </r>
       <r>    12.5328    13.8831   381.3050 </r>
       <r>    12.6492    15.8052   383.1454 </r>
       <r>    12.7657    16.1523   385.0261 </r>
       <r>    12.8821    14.2416   386.6844 </r>
       <r>    12.9985    18.2296   388.8070 </r>
       <r>    13.1150    18.1592   390.9214 </r>
       <r>    13.2314    19.0056   393.1344 </r>
       <r>    13.3479    21.0262   395.5827 </r>
       <r>    13.4643    21.7292   398.1128 </r>
       <r>    13.5807    21.6871   400.6380 </r>
       <r>    13.6972    21.2366   403.1107 </r>
       <r>    13.8136    21.7436   405.6425 </r>
       <r>    13.9301    22.0916   408.2148 </r>
       <r>    14.0465    20.8654   410.6443 </r>
       <r>    14.1629    20.6551   413.0494 </r>
       <r>    14.2794    20.0512   415.3841 </r>
       <r>    14.3958    18.5178   417.5403 </r>
       <r>    14.5122    15.7931   419.3792 </r>
       <r>    14.6287    16.2832   421.2752 </r>
       <r>    14.7451    13.3913   422.8345 </r>
       <r>    14.8616    12.1410   424.2481 </r>
       <r>    14.9780    13.4671   425.8162 </r>
       <r>    15.0944    16.7333   427.7646 </r>
       <r>    15.2109    16.2089   429.6520 </r>
       <r>    15.3273    16.0936   431.5259 </r>
       <r>    15.4437    16.1300   433.4040 </r>
       <r>    15.5602    16.4219   435.3161 </r>
       <r>    15.6766    16.5931   437.2482 </r>
       <r>    15.7931    17.6596   439.3045 </r>
       <r>    15.9095    19.0057   441.5174 </r>
       <r>    16.0259    15.7225   443.3481 </r>
       <r>    16.1424    17.9291   445.4358 </r>
       <r>    16.2588    21.4077   447.9285 </r>
       <r>    16.3753    20.0689   450.2652 </r>
       <r>    16.4917    19.3508   452.5184 </r>
       <r>    16.6081    19.6245   454.8034 </r>
       <r>    16.7246    18.4825   456.9555 </r>
       <r>    16.8410    18.1965   459.0743 </r>
       <r>    16.9574    20.8495   461.5019 </r>
       <r>    17.0739    21.5499   464.0112 </r>
       <r>    17.1903    25.9259   467.0299 </r>
       <r>    17.3068    24.8830   469.9273 </r>
       <r>    17.4232    25.2288   472.8649 </r>
       <r>    17.5396    23.1744   475.5633 </r>
       <r>    17.6561    23.5577   478.3063 </r>
       <r>    17.7725    23.4569   481.0375 </r>
       <r>    17.8889    24.7836   483.9233 </r>
       <r>    18.0054    23.6760   486.6801 </r>
       <r>    18.1218    23.5185   489.4185 </r>
       <r>    18.2383    21.9986   491.9800 </r>
       <r>    18.3547    19.4732   494.2474 </r>
       <r>    18.4711    15.0586   496.0008 </r>
       <r>    18.5876    12.1137   497.4113 </r>
       <r>    18.7040     9.2670   498.4904 </r>
       <r>    18.8205     6.6537   499.2651 </r>
       <r>    18.9369     3.5396   499.6773 </r>
       <r>    19.0533     1.4404   499.8450 </r>
       <r>    19.1698     0.6087   499.9159 </r>
       <r>    19.2862     0.4018   499.9626 </r>
       <r>    19.4026     0.3281   500.0008 </r>
       <r>    19.5191    -0.0042   500.0004 </r>
       <r>    19.6355    -0.0030   500.0000 </r>
       <r>    19.7520    -0.0000   500.0000 </r>
       <r>    19.8684    -0.0000   500.0000 </r>
       <r>    19.9848    -0.0000   500.0000 </r>
       <r>    20.1013     0.0000   500.0000 </r>
       <r>    20.2177     0.0000   500.0000 </r>
       <r>    20.3341     0.0000   500.0000 </r>
       <r>    20.4506     0.0000   500.0000 </r>
       <r>    20.5670     0.0000   500.0000 </r>
       <r>    20.6835     0.0000   500.0000 </r>
       <r>    20.7999     0.0000   500.0000 </r>
       <r>    20.9163     0.0000   500.0000 </r>
      </set>
     </set>
    </array>
   </total>
  </dos>
 </calculation>
 <structure name="finalpos" >
  <crystal>
   <varray name="basis" >
    <v>       2.46549997      -2.46549997       0.00000000 </v>
    <v>       0.00000000       2.46549997      -2.46549997 </v>
    <v>      42.77667205      42.77667205      42.77667205 </v>
   </varray>
   <i name="volume">    780.07840094 </i>
   <varray name="rec_basis" >
    <v>       0.27039816      -0.13519908      -0.13519908 </v>
    <v>       0.13519908       0.13519908      -0.27039816 </v>
    <v>       0.00779241       0.00779241       0.00779241 </v>
   </varray>
  </crystal>
  <varray name="positions" >
   <v>       0.66666695       0.33333389       0.00100113 </v>
   <v>       0.00000027       0.00000054       0.03765430 </v>
   <v>       0.33333362       0.66666722       0.07662113 </v>
   <v>       0.66666695       0.33333389       0.11515777 </v>
   <v>       0.00000027       0.00000054       0.15370069 </v>
   <v>       0.33333362       0.66666722       0.19215792 </v>
   <v>       0.66666695       0.33333389       0.23054211 </v>
   <v>       0.00000027       0.00000054       0.26902470 </v>
   <v>       0.33333362       0.66666722       0.30732515 </v>
   <v>       0.66666695       0.33333389       0.34589073 </v>
   <v>       0.00000027       0.00000054       0.38417229 </v>
   <v>       0.33333362       0.66666722       0.42273787 </v>
   <v>       0.66666695       0.33333389       0.46103832 </v>
   <v>       0.00000027       0.00000054       0.49952092 </v>
   <v>       0.33333362       0.66666722       0.53790510 </v>
   <v>       0.66666695       0.33333389       0.57636234 </v>
   <v>       0.00000027       0.00000054       0.61490526 </v>
   <v>       0.33333362       0.66666722       0.65344190 </v>
   <v>       0.66666695       0.33333389       0.69240872 </v>
   <v>       0.00000027       0.00000054       0.72906189 </v>
  </varray>
 </structure>
</modeling>
